Script started on 2023-11-28 11:41:51+02:00 [TERM="xterm-256color" TTY="/dev/pts/0" COLUMNS="80" LINES="24"]
cristinagheorghe@Ubuntu22:~/Desktop$mcristinagheorghe@Ubuntu22[00m:[01;34m~/Desktop[00m$ cd ~/Downloads
[?2004l
[?2004h]0;cristinagheorghe@Ubuntu22: ~/Downloads[01;32mcristinagheorghe@Ubuntu22[00m:[01;34m~/Downloads[00m$ [7mtar xzvf linux-exercise.tar.gz[27mtar xzvf linux-exercise.tar.gz
[?2004l
linux-exercises/
linux-exercises/dimer_scan.log
linux-exercises/freq.log
linux-exercises/cp2k.xyz
linux-exercises/cp2k.out
linux-exercises/dimer.log
[?2004h]0;cristinagheorghe@Ubuntu22: ~/Downloads[01;32mcristinagheorghe@Ubuntu22[00m:[01;34m~/Downloads[00m$ more cp2k.out
[?2004l
more: cannot open cp2k.out: No such file or directory
[?2004h]0;cristinagheorghe@Ubuntu22: ~/Downloads[01;32mcristinagheorghe@Ubuntu22[00m:[01;34m~/Downloads[00m$ cdmore cp2k.outtar xzvf linux-exercise.tar.gz                              cd linux-exerciuse   ses
[?2004l
[?2004h]0;cristinagheorghe@Ubuntu22: ~/Downloads/linux-exercises[01;32mcristinagheorghe@Ubuntu22[00m:[01;34m~/Downloads/linux-exercises[00m$ cd linux-exercises[5Pmore cp2k.out
[?2004l
 DBCSR| Multiplication driver                                                SMM
 DBCSR| Multiplication stack size                                           1000
 DBCSR| Multiplication size stacks                                             0
 DBCSR| Use subcommunicators                                                   F
 DBCSR| Use MPI combined types                                                 F
 DBCSR| Use MPI memory allocation                                              T
 DBCSR| Use Communication thread                                               T
 DBCSR| Communication thread load                                            100


  **** **** ******  **  PROGRAM STARTED AT               2013-02-12 09:15:34.616
 ***** ** ***  *** **   PROGRAM STARTED ON                              nid00016
 **    ****   ******    PROGRAM STARTED BY
 ***** **    ** ** **   PROGRAM PROCESS ID                                 31373
  **** **  *******  **  PROGRAM STARTED IN          /wrk/asillanp/cp2k/benchmark

 CP2K| version string:                                          CP2K version 2.3
 CP2K| source code revision number:                                        12343
 CP2K| is freely available from                             http://www.cp2k.org/
 CP2K| Program compiled at                          Thu Feb  7 17:23:41 EET 2013
 CP2K| Program compiled on                                           sisu-login1
 CP2K| Program compiled for                                          sisu-intel3
 CP2K| Input file name                                            H2O-512_md.inp
[7m--More--(1%)[27m
 [K
[7m--More--(1%)[27m
 GLOBAL| Force Environment number                                              1
[7m--More--(1%)[27m
[K[?2004h]0;cristinagheorghe@Ubuntu22: ~/Downloads/linux-exercises[01;32mcristinagheorghe@Ubuntu22[00m:[01;34m~/Downloads/linux-exercises[00m$ nano cp2k.out
[?2004l
[?2004h[?1049h[22;0;0t[1;24r(B[m[4l[?7h[39;49m[?1h=[?1h=[?25l[39;49m(B[m[H[2J[22;34H(B[0;7m[ Reading... ](B[m[22;31H(B[0;7m[ Read 1434 lines ](B[m[H(B[0;7m  GNU nano 6.2 [23bcp2k.out [32b [1;79H(B[m
[23d(B[0;7m^G(B[m Help[14G(B[0;7m^O(B[m Write Out (B[0;7m^W(B[m Where Is  (B[0;7m^K(B[m Cut[53G(B[0;7m^T(B[m Execute   (B[0;7m^C(B[m Location
[24d(B[0;7m^X(B[m Exit[14G(B[0;7m^R(B[m Read File (B[0;7m^\(B[m Replace   (B[0;7m^U(B[m Paste     (B[0;7m^J(B[m Justify   (B[0;7m^/(B[m Go To Line
[2d DBCSR| Multiplication driver[78GSMM[3;2HDBCSR| Multiplication stack size[77G1000[4;2HDBCSR| Multiplication size stacks[80G0[5;2HDBCSR| Use subcommunicators[80GF[6;2HDBCSR| Use MPI combined types[80GF[7;2HDBCSR| Use MPI memory allocation[80GT[8;2HDBCSR| Use Communication thread[80GT[9;2HDBCSR| Communication thread load[78G100[12;3H**** **** ******  **  PROGRAM STARTED AT[12;58H2013-02-12 09:15:34.616[13;2H***** ** ***  *** **   PROGRAM STARTED ON[73Gnid00016[14;2H**    ****   ******    PROGRAM STARTED BY
[15d ***** **    ** ** **   PROGRAM PROCESS ID[76G31373[16;3H**** **  *[6b  **  PROGRAM STARTED IN[16;53H/wrk/asillanp/cp2k/benchmark[18;2HCP2K| version string:[18;65HCP2K version 2.3[19;2HCP2K| source code revision number:[76G12343[20;2HCP2K| is freely available from[20;61H[94mhttp://www.cp2k.org/[21;2H[39m(B[mCP2K| Program compiled at[21;53HThu Feb  7 17:23:41 EET 2013[2;1H[?12l[?25h[24;1H[?1049l[23;0;0t
[?1l>[?1049h[22;0;0t[1;24r[?12l[?25h[39;49m]104(B[m[4l[?7h[H[2J[?2004h[?1h=[?1h=(B[0;7m  GNU nano 6.2 [24bcp2k.out [32b [1;80H(B[m
[2d DBCSR| Multiplication driver[78GSMM
[3d DBCSR| Multiplication stack size[77G1000
[4d DBCSR| Multiplication size stacks[80G0
[5d DBCSR| Use subcommunicators[80GF
[6d DBCSR| Use MPI combined types[80GF
[7d DBCSR| Use MPI memory allocation[80GT
[8d DBCSR| Use Communication thread[80GT
[9d DBCSR| Communication thread load[78G100[12;3H**** **** ******  **  PROGRAM STARTED AT[12;58H2013-02-12 09:15:34.616
[13d ***** ** ***  *** **   PROGRAM STARTED ON[13;73Hnid00016
[14d **    ****   ******    PROGRAM STARTED BY
[15d ***** **    ** ** **   PROGRAM PROCESS ID[76G31373[16;3H**** **  *[6b  **  PROGRAM STARTED IN[16;53H/wrk/asillanp/cp2k/benchmark
[18d CP2K| version string:[18;65HCP2K version 2.3
[19d CP2K| source code revision number:[76G12343
[20d CP2K| is freely available from[20;61H[94mhttp://www.cp2k.org/[21;2H[39m(B[mCP2K| Program compiled at[21;53HThu Feb  7 17:23:41 EET 2013
[23d(B[0;7m^G(B[m Help[14G(B[0;7m^O(B[m Write Out (B[0;7m^W(B[m Where Is  (B[0;7m^K(B[m Cut[53G(B[0;7m^T(B[m Execute   (B[0;7m^C(B[m Location
[24d(B[0;7m^X(B[m Exit[14G(B[0;7m^R(B[m Read File (B[0;7m^\(B[m Replace   (B[0;7m^U(B[m Paste     (B[0;7m^J(B[m Justify   (B[0;7m^/(B[m Go To Line[?25l[?12l[?25h
[2d[?25l[?12l[?25h[24;1H[?1049l[23;0;0t
[?1l>[?1049h[22;0;0t[1;25r[?12l[?25h[39;49m]104(B[m[4l[?7h[H[2J(B[0;7m  GNU nano 6.2 [24bcp2k.out [32b[2;2H(B[mDBCSR| Multiplication driver[78GSMM
[3d DBCSR| Multiplication stack size[3;77H1000
[4d DBCSR| Multiplication size stacks[80G0
[5d DBCSR| Use subcommunicators[80GF
[6d DBCSR| Use MPI combined types[80GF
[7d DBCSR| Use MPI memory allocation[80GT
[8d DBCSR| Use Communication thread[80GT
[9d DBCSR| Communication thread load[78G100[12;3H**** **** ******  **  PROGRAM STARTED AT[12;58H2013-02-12 09:15:34.616
[13d ***** ** ***  *** **   PROGRAM STARTED ON[13;73Hnid00016
[14d **    ****   ******    PROGRAM STARTED BY
[15d ***** **    ** ** **   PROGRAM PROCESS ID[15;76H31373[16;3H**** **  *[6b  **  PROGRAM STARTED IN[16;53H/wrk/asillanp/cp2k/benchmark
[18d CP2K| version string:[18;65HCP2K version 2.3
[19d CP2K| source code revision number:[19;76H12343
[20d CP2K| is freely available from[20;61H[94mhttp://www.cp2k.org/[21;2H[39m(B[mCP2K| Program compiled at[21;53HThu Feb  7 17:23:41 EET 2013
[23d(B[0;7m^G(B[m Help[14G(B[0;7m^O(B[m Write Out (B[0;7m^W(B[m Where Is  (B[0;7m^K(B[m Cut[53G(B[0;7m^T(B[m Execute   (B[0;7m^C(B[m Location
[24d(B[0;7m^X(B[m Exit[14G(B[0;7m^R(B[m Read File (B[0;7m^\(B[m Replace   (B[0;7m^U(B[m Paste     (B[0;7m^J(B[m Justify   (B[0;7m^/(B[m Go To Line[H[?2004h[?1h=[?1h=[23d[J[1;40H(B[0;7m  cp2k.out[81G     [1;84H(B[m
[22d CP2K| Program compiled on[22;70Hsisu-login1
[24d(B[0;7m^G(B[m Help[15G(B[0;7m^O(B[m Write Out  (B[0;7m^W(B[m Where Is   (B[0;7m^K(B[m Cut[24;57H(B[0;7m^T(B[m Execute    (B[0;7m^C(B[m Location
[25d(B[0;7m^X(B[m Exit[15G(B[0;7m^R(B[m Read File  (B[0;7m^\(B[m Replace    (B[0;7m^U(B[m Paste[57G(B[0;7m^J(B[m Justify    (B[0;7m^/(B[m Go To Line[?25l[?12l[?25h
[2d[?25l[?12l[?25h[25;1H[?1049l[23;0;0t
[?1l>[?1049h[22;0;0t[1;26r[?12l[?25h[39;49m]104(B[m[4l[?7h[H[2J(B[0;7m  GNU nano 6.2 [26bcp2k.out [31b[2;2H(B[mDBCSR| Multiplication driver[2;78HSMM
[3d DBCSR| Multiplication stack size[3;77H1000
[4d DBCSR| Multiplication size stacks[4;80H0
[5d DBCSR| Use subcommunicators[5;80HF
[6d DBCSR| Use MPI combined types[6;80HF
[7d DBCSR| Use MPI memory allocation[7;80HT
[8d DBCSR| Use Communication thread[8;80HT
[9d DBCSR| Communication thread load[9;78H100[12;3H**** **** ******  **  PROGRAM STARTED AT[12;58H2013-02-12 09:15:34.616
[13d ***** ** ***  *** **   PROGRAM STARTED ON[13;73Hnid00016
[14d **    ****   ******    PROGRAM STARTED BY
[15d ***** **    ** ** **   PROGRAM PROCESS ID[15;76H31373[16;3H**** **  *[6b  **  PROGRAM STARTED IN[16;53H/wrk/asillanp/cp2k/benchmark
[18d CP2K| version string:[18;65HCP2K version 2.3
[19d CP2K| source code revision number:[19;76H12343
[20d CP2K| is freely available from[20;61H[94mhttp://www.cp2k.org/[21;2H[39m(B[mCP2K| Program compiled at[21;53HThu Feb  7 17:23:41 EET 2013
[22d CP2K| Program compiled on[22;70Hsisu-login1
[24d(B[0;7m^G(B[m Help[15G(B[0;7m^O(B[m Write Out  (B[0;7m^W(B[m Where Is   (B[0;7m^K(B[m Cut[24;57H(B[0;7m^T(B[m Execute    (B[0;7m^C(B[m Location
[25d(B[0;7m^X(B[m Exit[15G(B[0;7m^R(B[m Read File  (B[0;7m^\(B[m Replace    (B[0;7m^U(B[m Paste[57G(B[0;7m^J(B[m Justify    (B[0;7m^/(B[m Go To Li[H[?2004h[?1h=[?1h=[24d[J[1;42H(B[0;7m cp2k.out[82G [5b [1;87H(B[m
[23d CP2K| Program compiled for[23;70Hsisu-intel3
[25d(B[0;7m^G(B[m Help[15G(B[0;7m^O(B[m Write Out  (B[0;7m^W(B[m Where Is   (B[0;7m^K(B[m Cut[25;57H(B[0;7m^T(B[m Execute    (B[0;7m^C(B[m Location
[26d(B[0;7m^X(B[m Exit[15G(B[0;7m^R(B[m Read File  (B[0;7m^\(B[m Replace    (B[0;7m^U(B[m Paste[57G(B[0;7m^J(B[m Justify    (B[0;7m^/(B[m Go To Line[?25l[?12l[?25h
[2d[?25l[?12l[?25h[26;1H[?1049l[23;0;0t
[?1l>[?1049h[22;0;0t[1;27r[?12l[?25h[39;49m]104(B[m[4l[?7h[H[2J(B[0;7m  GNU nano 6.2 [27bcp2k.out [34b[2;2H(B[mDBCSR| Multiplication driver[2;78HSMM
[3d DBCSR| Multiplication stack size[3;77H1000
[4d DBCSR| Multiplication size stacks[4;80H0
[5d DBCSR| Use subcommunicators[5;80HF
[6d DBCSR| Use MPI combined types[6;80HF
[7d DBCSR| Use MPI memory allocation[7;80HT
[8d DBCSR| Use Communication thread[8;80HT
[9d DBCSR| Communication thread load[9;78H100[12;3H**** **** ******  **  PROGRAM STARTED AT[12;58H2013-02-12 09:15:34.616
[13d ***** ** ***  *** **   PROGRAM STARTED ON[13;73Hnid00016
[14d **    ****   ******    PROGRAM STARTED BY
[15d ***** **    ** ** **   PROGRAM PROCESS ID[15;76H31373[16;3H**** **  *[6b  **  PROGRAM STARTED IN[16;53H/wrk/asillanp/cp2k/benchmark
[18d CP2K| version string:[18;65HCP2K version 2.3
[19d CP2K| source code revision number:[19;76H12343
[20d CP2K| is freely available from[20;61H[94mhttp://www.cp2k.org/[21;2H[39m(B[mCP2K| Program compiled at[21;53HThu Feb  7 17:23:41 EET 2013
[22d CP2K| Program compiled on[22;70Hsisu-login1
[23d CP2K| Program compiled for[23;70Hsisu-intel3
[25d(B[0;7m^G(B[m Help[15G(B[0;7m^O(B[m Write Out  (B[0;7m^W(B[m Where Is   (B[0;7m^K(B[m Cut[25;57H(B[0;7m^T(B[m Execute    (B[0;7m^C(B[m Location
[26d(B[0;7m^X(B[m Exit[15G(B[0;7m^R(B[m Read File  (B[0;7m^\(B[m Replace    (B[0;7m^U(B[m Paste[57G(B[0;7m^J(B[m Justify    (B[0;7m^/(B[m Go To Line[H[?2004h[?1h=[?1h=[25d[J[1;43H(B[0;7m cp2k.out[86G     [1;89H(B[m
[24d CP2K| Input file name[24;67HH2O-512_md.inp
[26d(B[0;7m^G(B[m Help[26;16H(B[0;7m^O(B[m Write Out   (B[0;7m^W(B[m Where Is    (B[0;7m^K(B[m Cut[26;61H(B[0;7m^T(B[m Execute     (B[0;7m^C(B[m Location
[27d(B[0;7m^X(B[m Exit[27;16H(B[0;7m^R(B[m Read File   (B[0;7m^\(B[m Replace     (B[0;7m^U(B[m Paste[61G(B[0;7m^J(B[m Justify     (B[0;7m^/(B[m Go To Line[?25l[?12l[?25h
[2d[?25l[?12l[?25h[27;1H[?1049l[23;0;0t
[?1l>[?1049h[22;0;0t[1;28r[?12l[?25h[39;49m]104(B[m[4l[?7h[H[2J(B[0;7m  GNU nano 6.2 [28bcp2k.out [36b[2;2H(B[mDBCSR| Multiplication driver[2;78HSMM
[3d DBCSR| Multiplication stack size[3;77H1000
[4d DBCSR| Multiplication size stacks[4;80H0
[5d DBCSR| Use subcommunicators[5;80HF
[6d DBCSR| Use MPI combined types[6;80HF
[7d DBCSR| Use MPI memory allocation[7;80HT
[8d DBCSR| Use Communication thread[8;80HT
[9d DBCSR| Communication thread load[9;78H100[12;3H**** **** ******  **  PROGRAM STARTED AT[12;58H2013-02-12 09:15:34.616
[13d ***** ** ***  *** **   PROGRAM STARTED ON[13;73Hnid00016
[14d **    ****   ******    PROGRAM STARTED BY
[15d ***** **    ** ** **   PROGRAM PROCESS ID[15;76H31373[16;3H**** **  *[6b  **  PROGRAM STARTED IN[16;53H/wrk/asillanp/cp2k/benchmark
[18d CP2K| version string:[18;65HCP2K version 2.3
[19d CP2K| source code revision number:[19;76H12343
[20d CP2K| is freely available from[20;61H[94mhttp://www.cp2k.org/[21;2H[39m(B[mCP2K| Program compiled at[21;53HThu Feb  7 17:23:41 EET 2013
[22d CP2K| Program compiled on[22;70Hsisu-login1
[23d CP2K| Program compiled for[23;70Hsisu-intel3
[24d CP2K| Input file name[24;67HH2O-512_md.inp
[26d(B[0;7m^G(B[m Help[26;16H(B[0;7m^O(B[m Write Out   (B[0;7m^W(B[m Where Is    (B[0;7m^K(B[m Cut[26;61H(B[0;7m^T(B[m Execute     (B[0;7m^C(B[m Location
[27d(B[0;7m^X(B[m Exit[27;16H(B[0;7m^R(B[m Read File   (B[0;7m^\(B[m Replace     (B[0;7m^U(B[m Paste[61G(B[0;7m^J(B[m Justify     (B[0;7m^/(B[m Go To Line[H[?2004h[?1h=[?1h=[26d[J[1;44H(B[0;7m  cp2k.out[89G     [1;92H(B[m
[27d(B[0;7m^G(B[m Help[27;16H(B[0;7m^O(B[m Write Out   (B[0;7m^W(B[m Where Is    (B[0;7m^K(B[m Cut[27;61H(B[0;7m^T(B[m Execute     (B[0;7m^C(B[m Location
[28d(B[0;7m^X(B[m Exit[28;16H(B[0;7m^R(B[m Read File   (B[0;7m^\(B[m Replace     (B[0;7m^U(B[m Paste[61G(B[0;7m^J(B[m Justify     (B[0;7m^/(B[m Go To Line[?25l[?12l[?25h
[2d[?25l[?12l[?25h[28;1H[?1049l[23;0;0t
[?1l>[?1049h[22;0;0t[1;28r[?12l[?25h[39;49m]104(B[m[4l[?7h[H[2J(B[0;7m  GNU nano 6.2 [30bcp2k.out [36b[2;2H(B[mDBCSR| Multiplication driver[2;78HSMM
[3d DBCSR| Multiplication stack size[3;77H1000
[4d DBCSR| Multiplication size stacks[4;80H0
[5d DBCSR| Use subcommunicators[5;80HF
[6d DBCSR| Use MPI combined types[6;80HF
[7d DBCSR| Use MPI memory allocation[7;80HT
[8d DBCSR| Use Communication thread[8;80HT
[9d DBCSR| Communication thread load[9;78H100[12;3H**** **** ******  **  PROGRAM STARTED AT[12;58H2013-02-12 09:15:34.616
[13d ***** ** ***  *** **   PROGRAM STARTED ON[13;73Hnid00016
[14d **    ****   ******    PROGRAM STARTED BY
[15d ***** **    ** ** **   PROGRAM PROCESS ID[15;76H31373[16;3H**** **  *[6b  **  PROGRAM STARTED IN[16;53H/wrk/asillanp/cp2k/benchmark
[18d CP2K| version string:[18;65HCP2K version 2.3
[19d CP2K| source code revision number:[19;76H12343
[20d CP2K| is freely available from[20;61H[94mhttp://www.cp2k.org/[21;2H[39m(B[mCP2K| Program compiled at[21;53HThu Feb  7 17:23:41 EET 2013
[22d CP2K| Program compiled on[22;70Hsisu-login1
[23d CP2K| Program compiled for[23;70Hsisu-intel3
[24d CP2K| Input file name[24;67HH2O-512_md.inp
[27d(B[0;7m^G(B[m Help[27;16H(B[0;7m^O(B[m Write Out   (B[0;7m^W(B[m Where Is    (B[0;7m^K(B[m Cut[27;61H(B[0;7m^T(B[m Execute     (B[0;7m^C(B[m Location
[28d(B[0;7m^X(B[m Exit[28;16H(B[0;7m^R(B[m Read File   (B[0;7m^\(B[m Replace     (B[0;7m^U(B[m Paste[61G(B[0;7m^J(B[m Justify     (B[0;7m^/(B[m Go To Line[H[?2004h[?1h=[?1h=[27d[J[1;46H(B[0;7m cp2k.out[91G      [1;95H(B[m
[27d(B[0;7m^G(B[m Help[27;17H(B[0;7m^O(B[m Write Out    (B[0;7m^W(B[m Where Is     (B[0;7m^K(B[m Cut[27;65H(B[0;7m^T(B[m Execute[81G(B[0;7m^C(B[m Location
[28d(B[0;7m^X(B[m Exit[28;17H(B[0;7m^R(B[m Read File    (B[0;7m^\(B[m Replace[49G(B[0;7m^U(B[m Paste[28;65H(B[0;7m^J(B[m Justify[81G(B[0;7m^/(B[m Go To Line[?25l[?12l[?25h
[2d[?25l[?12l[?25h[28;1H[?1049l[23;0;0t
[?1l>[?1049h[22;0;0t[1;29r[?12l[?25h[39;49m]104(B[m[4l[?7h[H[2J(B[0;7m  GNU nano 6.2 [31bcp2k.out [38b[2;2H(B[mDBCSR| Multiplication driver[2;78HSMM
[3d DBCSR| Multiplication stack size[3;77H1000
[4d DBCSR| Multiplication size stacks[4;80H0
[5d DBCSR| Use subcommunicators[5;80HF
[6d DBCSR| Use MPI combined types[6;80HF
[7d DBCSR| Use MPI memory allocation[7;80HT
[8d DBCSR| Use Communication thread[8;80HT
[9d DBCSR| Communication thread load[9;78H100[12;3H**** **** ******  **  PROGRAM STARTED AT[12;58H2013-02-12 09:15:34.616
[13d ***** ** ***  *** **   PROGRAM STARTED ON[13;73Hnid00016
[14d **    ****   ******    PROGRAM STARTED BY
[15d ***** **    ** ** **   PROGRAM PROCESS ID[15;76H31373[16;3H**** **  *[6b  **  PROGRAM STARTED IN[16;53H/wrk/asillanp/cp2k/benchmark
[18d CP2K| version string:[18;65HCP2K version 2.3
[19d CP2K| source code revision number:[19;76H12343
[20d CP2K| is freely available from[20;61H[94mhttp://www.cp2k.org/[21;2H[39m(B[mCP2K| Program compiled at[21;53HThu Feb  7 17:23:41 EET 2013
[22d CP2K| Program compiled on[22;70Hsisu-login1
[23d CP2K| Program compiled for[23;70Hsisu-intel3
[24d CP2K| Input file name[24;67HH2O-512_md.inp
[27d(B[0;7m^G(B[m Help[27;17H(B[0;7m^O(B[m Write Out    (B[0;7m^W(B[m Where Is     (B[0;7m^K(B[m Cut[27;65H(B[0;7m^T(B[m Execute[81G(B[0;7m^C(B[m Location
[28d(B[0;7m^X(B[m Exit[28;17H(B[0;7m^R(B[m Read File    (B[0;7m^\(B[m Replace[49G(B[0;7m^U(B[m Paste[28;65H(B[0;7m^J(B[m Justify[81G(B[0;7m^/(B[m Go To Line[H[?2004h[?1h=[?1h=[27d[J[1;47H(B[0;7m cp2k.out[94G     [1;97H(B[m
[26d GLOBAL| Force Environment number[26;80H1
[28d(B[0;7m^G(B[m Help[28;17H(B[0;7m^O(B[m Write Out    (B[0;7m^W(B[m Where Is     (B[0;7m^K(B[m Cut[28;65H(B[0;7m^T(B[m Execute[81G(B[0;7m^C(B[m Location
[29d(B[0;7m^X(B[m Exit[29;17H(B[0;7m^R(B[m Read File    (B[0;7m^\(B[m Replace[49G(B[0;7m^U(B[m Paste[29;65H(B[0;7m^J(B[m Justify[81G(B[0;7m^/(B[m Go To Line[?25l[?12l[?25h
[2d[?25l[?12l[?25h[29;1H[?1049l[23;0;0t
[?1l>[?1049h[22;0;0t[1;29r[?12l[?25h[39;49m]104(B[m[4l[?7h[H[2J(B[0;7m  GNU nano 6.2 [32bcp2k.out [40b[2;2H(B[mDBCSR| Multiplication driver[2;78HSMM
[3d DBCSR| Multiplication stack size[3;77H1000
[4d DBCSR| Multiplication size stacks[4;80H0
[5d DBCSR| Use subcommunicators[5;80HF
[6d DBCSR| Use MPI combined types[6;80HF
[7d DBCSR| Use MPI memory allocation[7;80HT
[8d DBCSR| Use Communication thread[8;80HT
[9d DBCSR| Communication thread load[9;78H100[12;3H**** **** ******  **  PROGRAM STARTED AT[12;58H2013-02-12 09:15:34.616
[13d ***** ** ***  *** **   PROGRAM STARTED ON[13;73Hnid00016
[14d **    ****   ******    PROGRAM STARTED BY
[15d ***** **    ** ** **   PROGRAM PROCESS ID[15;76H31373[16;3H**** **  *[6b  **  PROGRAM STARTED IN[16;53H/wrk/asillanp/cp2k/benchmark
[18d CP2K| version string:[18;65HCP2K version 2.3
[19d CP2K| source code revision number:[19;76H12343
[20d CP2K| is freely available from[20;61H[94mhttp://www.cp2k.org/[21;2H[39m(B[mCP2K| Program compiled at[21;53HThu Feb  7 17:23:41 EET 2013
[22d CP2K| Program compiled on[22;70Hsisu-login1
[23d CP2K| Program compiled for[23;70Hsisu-intel3
[24d CP2K| Input file name[24;67HH2O-512_md.inp
[26d GLOBAL| Force Environment number[26;80H1
[28d(B[0;7m^G(B[m Help[28;17H(B[0;7m^O(B[m Write Out    (B[0;7m^W(B[m Where Is     (B[0;7m^K(B[m Cut[28;65H(B[0;7m^T(B[m Execute[81G(B[0;7m^C(B[m Location
[29d(B[0;7m^X(B[m Exit[29;17H(B[0;7m^R(B[m Read File    (B[0;7m^\(B[m Replace[49G(B[0;7m^U(B[m Paste[29;65H(B[0;7m^J(B[m Justify[81G(B[0;7m^/(B[m Go To Line[H[?2004h[?1h=[?1h=[28d[J[1;48H(B[0;7m cp2k.out[97G    [1;99H(B[m
[28d(B[0;7m^G(B[m Help[15G(B[0;7m^O(B[m Write Out  (B[0;7m^W(B[m Where Is   (B[0;7m^K(B[m Cut[28;57H(B[0;7m^T(B[m Execute    (B[0;7m^C(B[m Location   (B[0;7mM-U(B[m Undo
[29d(B[0;7m^X(B[m Exit[15G(B[0;7m^R(B[m Read File  (B[0;7m^\(B[m Replace    (B[0;7m^U(B[m Paste[57G(B[0;7m^J(B[m Justify    (B[0;7m^/(B[m Go To Line (B[0;7mM-E(B[m Redo[?25l[?12l[?25h
[2d[?25l[?12l[?25h[29;1H[?1049l[23;0;0t
[?1l>[?1049h[22;0;0t[1;29r[?12l[?25h[39;49m]104(B[m[4l[?7h[H[2J(B[0;7m  GNU nano 6.2 [33bcp2k.out [41b[2;2H(B[mDBCSR| Multiplication driver[2;78HSMM
[3d DBCSR| Multiplication stack size[3;77H1000
[4d DBCSR| Multiplication size stacks[4;80H0
[5d DBCSR| Use subcommunicators[5;80HF
[6d DBCSR| Use MPI combined types[6;80HF
[7d DBCSR| Use MPI memory allocation[7;80HT
[8d DBCSR| Use Communication thread[8;80HT
[9d DBCSR| Communication thread load[9;78H100[12;3H**** **** ******  **  PROGRAM STARTED AT[12;58H2013-02-12 09:15:34.616
[13d ***** ** ***  *** **   PROGRAM STARTED ON[13;73Hnid00016
[14d **    ****   ******    PROGRAM STARTED BY
[15d ***** **    ** ** **   PROGRAM PROCESS ID[15;76H31373[16;3H**** **  *[6b  **  PROGRAM STARTED IN[16;53H/wrk/asillanp/cp2k/benchmark
[18d CP2K| version string:[18;65HCP2K version 2.3
[19d CP2K| source code revision number:[19;76H12343
[20d CP2K| is freely available from[20;61H[94mhttp://www.cp2k.org/[21;2H[39m(B[mCP2K| Program compiled at[21;53HThu Feb  7 17:23:41 EET 2013
[22d CP2K| Program compiled on[22;70Hsisu-login1
[23d CP2K| Program compiled for[23;70Hsisu-intel3
[24d CP2K| Input file name[24;67HH2O-512_md.inp
[26d GLOBAL| Force Environment number[26;80H1
[28d(B[0;7m^G(B[m Help[15G(B[0;7m^O(B[m Write Out  (B[0;7m^W(B[m Where Is   (B[0;7m^K(B[m Cut[28;57H(B[0;7m^T(B[m Execute    (B[0;7m^C(B[m Location   (B[0;7mM-U(B[m Undo
[29d(B[0;7m^X(B[m Exit[15G(B[0;7m^R(B[m Read File  (B[0;7m^\(B[m Replace    (B[0;7m^U(B[m Paste[57G(B[0;7m^J(B[m Justify    (B[0;7m^/(B[m Go To Line (B[0;7mM-E(B[m Redo[H[?2004h[?1h=[?1h=[28d[J[1;49H(B[0;7m cp2k.out[99G   [1;100H(B[m
[28d(B[0;7m^G(B[m Help[15G(B[0;7m^O(B[m Write Out  (B[0;7m^W(B[m Where Is   (B[0;7m^K(B[m Cut[28;57H(B[0;7m^T(B[m Execute    (B[0;7m^C(B[m Location   (B[0;7mM-U(B[m Undo
[29d(B[0;7m^X(B[m Exit[15G(B[0;7m^R(B[m Read File  (B[0;7m^\(B[m Replace    (B[0;7m^U(B[m Paste[57G(B[0;7m^J(B[m Justify    (B[0;7m^/(B[m Go To Line (B[0;7mM-E(B[m Redo[?25l[?12l[?25h
[2d[?25l[?12l[?25h[29;1H[?1049l[23;0;0t
[?1l>[?1049h[22;0;0t[1;30r[?12l[?25h[39;49m]104(B[m[4l[?7h[H[2J(B[0;7m  GNU nano 6.2 [34bcp2k.out [42b[2;2H(B[mDBCSR| Multiplication driver[2;78HSMM
[3d DBCSR| Multiplication stack size[3;77H1000
[4d DBCSR| Multiplication size stacks[4;80H0
[5d DBCSR| Use subcommunicators[5;80HF
[6d DBCSR| Use MPI combined types[6;80HF
[7d DBCSR| Use MPI memory allocation[7;80HT
[8d DBCSR| Use Communication thread[8;80HT
[9d DBCSR| Communication thread load[9;78H100[12;3H**** **** ******  **  PROGRAM STARTED AT[12;58H2013-02-12 09:15:34.616
[13d ***** ** ***  *** **   PROGRAM STARTED ON[13;73Hnid00016
[14d **    ****   ******    PROGRAM STARTED BY
[15d ***** **    ** ** **   PROGRAM PROCESS ID[15;76H31373[16;3H**** **  *[6b  **  PROGRAM STARTED IN[16;53H/wrk/asillanp/cp2k/benchmark
[18d CP2K| version string:[18;65HCP2K version 2.3
[19d CP2K| source code revision number:[19;76H12343
[20d CP2K| is freely available from[20;61H[94mhttp://www.cp2k.org/[21;2H[39m(B[mCP2K| Program compiled at[21;53HThu Feb  7 17:23:41 EET 2013
[22d CP2K| Program compiled on[22;70Hsisu-login1
[23d CP2K| Program compiled for[23;70Hsisu-intel3
[24d CP2K| Input file name[24;67HH2O-512_md.inp
[26d GLOBAL| Force Environment number[26;80H1
[28d(B[0;7m^G(B[m Help[15G(B[0;7m^O(B[m Write Out  (B[0;7m^W(B[m Where Is   (B[0;7m^K(B[m Cut[28;57H(B[0;7m^T(B[m Execute    (B[0;7m^C(B[m Location   (B[0;7mM-U(B[m Undo
[29d(B[0;7m^X(B[m Exit[15G(B[0;7m^R(B[m Read File  (B[0;7m^\(B[m Replace    (B[0;7m^U(B[m Paste[57G(B[0;7m^J(B[m Justify    (B[0;7m^/(B[m Go To Line (B[0;7mM-E(B[m Redo[H[?2004h[?1h=[?1h=[28d[J[1;101H(B[0;7m  [1;101H(B[m
[27d GLOBAL| Basis set file name[27;41H/wrk/asillanp/cp2k/basis_sets/GTH_BASIS_
[29d(B[0;7m^G(B[m Help[15G(B[0;7m^O(B[m Write Out  (B[0;7m^W(B[m Where Is   (B[0;7m^K(B[m Cut[29;57H(B[0;7m^T(B[m Execute    (B[0;7m^C(B[m Location   (B[0;7mM-U(B[m Undo
[30d(B[0;7m^X(B[m Exit[15G(B[0;7m^R(B[m Read File  (B[0;7m^\(B[m Replace    (B[0;7m^U(B[m Paste[57G(B[0;7m^J(B[m Justify    (B[0;7m^/(B[m Go To Line (B[0;7mM-E(B[m Redo[?25l[?12l[?25h
[2d[?25l[?12l[?25h[30;1H[?1049l[23;0;0t
[?1l>[?1049h[22;0;0t[1;30r[?12l[?25h[39;49m]104(B[m[4l[?7h[H[2J(B[0;7m  GNU nano 6.2 [34bcp2k.out [43b[2;2H(B[mDBCSR| Multiplication driver[2;78HSMM
[3d DBCSR| Multiplication stack size[3;77H1000
[4d DBCSR| Multiplication size stacks[4;80H0
[5d DBCSR| Use subcommunicators[5;80HF
[6d DBCSR| Use MPI combined types[6;80HF
[7d DBCSR| Use MPI memory allocation[7;80HT
[8d DBCSR| Use Communication thread[8;80HT
[9d DBCSR| Communication thread load[9;78H100[12;3H**** **** ******  **  PROGRAM STARTED AT[12;58H2013-02-12 09:15:34.616
[13d ***** ** ***  *** **   PROGRAM STARTED ON[13;73Hnid00016
[14d **    ****   ******    PROGRAM STARTED BY
[15d ***** **    ** ** **   PROGRAM PROCESS ID[15;76H31373[16;3H**** **  *[6b  **  PROGRAM STARTED IN[16;53H/wrk/asillanp/cp2k/benchmark
[18d CP2K| version string:[18;65HCP2K version 2.3
[19d CP2K| source code revision number:[19;76H12343
[20d CP2K| is freely available from[20;61H[94mhttp://www.cp2k.org/[21;2H[39m(B[mCP2K| Program compiled at[21;53HThu Feb  7 17:23:41 EET 2013
[22d CP2K| Program compiled on[22;70Hsisu-login1
[23d CP2K| Program compiled for[23;70Hsisu-intel3
[24d CP2K| Input file name[24;67HH2O-512_md.inp
[26d GLOBAL| Force Environment number[26;80H1
[27d GLOBAL| Basis set file name[27;41H/wrk/asillanp/cp2k/basis_sets/GTH_BASIS_
[29d(B[0;7m^G(B[m Help[15G(B[0;7m^O(B[m Write Out  (B[0;7m^W(B[m Where Is   (B[0;7m^K(B[m Cut[29;57H(B[0;7m^T(B[m Execute    (B[0;7m^C(B[m Location   (B[0;7mM-U(B[m Undo
[30d(B[0;7m^X(B[m Exit[15G(B[0;7m^R(B[m Read File  (B[0;7m^\(B[m Replace    (B[0;7m^U(B[m Paste[57G(B[0;7m^J(B[m Justify    (B[0;7m^/(B[m Go To Line (B[0;7mM-E(B[m Redo[H[?2004h[?1h=[?1h=[29d[J[1;50H(B[0;7m cp2k.out[102G  [1;102H(B[m
[29d(B[0;7m^G(B[m Help[15G(B[0;7m^O(B[m Write Out  (B[0;7m^W(B[m Where Is   (B[0;7m^K(B[m Cut[29;57H(B[0;7m^T(B[m Execute    (B[0;7m^C(B[m Location   (B[0;7mM-U(B[m Undo
[30d(B[0;7m^X(B[m Exit[15G(B[0;7m^R(B[m Read File  (B[0;7m^\(B[m Replace    (B[0;7m^U(B[m Paste[57G(B[0;7m^J(B[m Justify    (B[0;7m^/(B[m Go To Line (B[0;7mM-E(B[m Redo[?25l[?12l[?25h
[2d[?25l[?12l[?25h[30;1H[?1049l[23;0;0t
[?1l>[?1049h[22;0;0t[1;30r[?12l[?25h[39;49m]104(B[m[4l[?7h[H[2J(B[0;7m  GNU nano 6.2 [35bcp2k.out [43b[2;2H(B[mDBCSR| Multiplication driver[2;78HSMM
[3d DBCSR| Multiplication stack size[3;77H1000
[4d DBCSR| Multiplication size stacks[4;80H0
[5d DBCSR| Use subcommunicators[5;80HF
[6d DBCSR| Use MPI combined types[6;80HF
[7d DBCSR| Use MPI memory allocation[7;80HT
[8d DBCSR| Use Communication thread[8;80HT
[9d DBCSR| Communication thread load[9;78H100[12;3H**** **** ******  **  PROGRAM STARTED AT[12;58H2013-02-12 09:15:34.616
[13d ***** ** ***  *** **   PROGRAM STARTED ON[13;73Hnid00016
[14d **    ****   ******    PROGRAM STARTED BY
[15d ***** **    ** ** **   PROGRAM PROCESS ID[15;76H31373[16;3H**** **  *[6b  **  PROGRAM STARTED IN[16;53H/wrk/asillanp/cp2k/benchmark
[18d CP2K| version string:[18;65HCP2K version 2.3
[19d CP2K| source code revision number:[19;76H12343
[20d CP2K| is freely available from[20;61H[94mhttp://www.cp2k.org/[21;2H[39m(B[mCP2K| Program compiled at[21;53HThu Feb  7 17:23:41 EET 2013
[22d CP2K| Program compiled on[22;70Hsisu-login1
[23d CP2K| Program compiled for[23;70Hsisu-intel3
[24d CP2K| Input file name[24;67HH2O-512_md.inp
[26d GLOBAL| Force Environment number[26;80H1
[27d GLOBAL| Basis set file name[27;41H/wrk/asillanp/cp2k/basis_sets/GTH_BASIS_
[29d(B[0;7m^G(B[m Help[15G(B[0;7m^O(B[m Write Out  (B[0;7m^W(B[m Where Is   (B[0;7m^K(B[m Cut[29;57H(B[0;7m^T(B[m Execute    (B[0;7m^C(B[m Location   (B[0;7mM-U(B[m Undo
[30d(B[0;7m^X(B[m Exit[15G(B[0;7m^R(B[m Read File  (B[0;7m^\(B[m Replace    (B[0;7m^U(B[m Paste[57G(B[0;7m^J(B[m Justify    (B[0;7m^/(B[m Go To Line (B[0;7mM-E(B[m Redo[H[?2004h[?1h=[?1h=[29d[J[1;103H(B[0;7m  [1;103H(B[m
[29d(B[0;7m^G(B[m Help[15G(B[0;7m^O(B[m Write Out  (B[0;7m^W(B[m Where Is   (B[0;7m^K(B[m Cut[29;57H(B[0;7m^T(B[m Execute    (B[0;7m^C(B[m Location   (B[0;7mM-U(B[m Undo
[30d(B[0;7m^X(B[m Exit[15G(B[0;7m^R(B[m Read File  (B[0;7m^\(B[m Replace    (B[0;7m^U(B[m Paste[57G(B[0;7m^J(B[m Justify    (B[0;7m^/(B[m Go To Line (B[0;7mM-E(B[m Redo[?25l[?12l[?25h
[2d[?25l[?12l[?25h[30;1H[?1049l[23;0;0t
[?1l>[?1049h[22;0;0t[1;31r[?12l[?25h[39;49m]104(B[m[4l[?7h[H[2J(B[0;7m  GNU nano 6.2 [35bcp2k.out [44b[2;2H(B[mDBCSR| Multiplication driver[2;78HSMM
[3d DBCSR| Multiplication stack size[3;77H1000
[4d DBCSR| Multiplication size stacks[4;80H0
[5d DBCSR| Use subcommunicators[5;80HF
[6d DBCSR| Use MPI combined types[6;80HF
[7d DBCSR| Use MPI memory allocation[7;80HT
[8d DBCSR| Use Communication thread[8;80HT
[9d DBCSR| Communication thread load[9;78H100[12;3H**** **** ******  **  PROGRAM STARTED AT[12;58H2013-02-12 09:15:34.616
[13d ***** ** ***  *** **   PROGRAM STARTED ON[13;73Hnid00016
[14d **    ****   ******    PROGRAM STARTED BY
[15d ***** **    ** ** **   PROGRAM PROCESS ID[15;76H31373[16;3H**** **  *[6b  **  PROGRAM STARTED IN[16;53H/wrk/asillanp/cp2k/benchmark
[18d CP2K| version string:[18;65HCP2K version 2.3
[19d CP2K| source code revision number:[19;76H12343
[20d CP2K| is freely available from[20;61H[94mhttp://www.cp2k.org/[21;2H[39m(B[mCP2K| Program compiled at[21;53HThu Feb  7 17:23:41 EET 2013
[22d CP2K| Program compiled on[22;70Hsisu-login1
[23d CP2K| Program compiled for[23;70Hsisu-intel3
[24d CP2K| Input file name[24;67HH2O-512_md.inp
[26d GLOBAL| Force Environment number[26;80H1
[27d GLOBAL| Basis set file name[27;41H/wrk/asillanp/cp2k/basis_sets/GTH_BASIS_
[29d(B[0;7m^G(B[m Help[15G(B[0;7m^O(B[m Write Out  (B[0;7m^W(B[m Where Is   (B[0;7m^K(B[m Cut[29;57H(B[0;7m^T(B[m Execute    (B[0;7m^C(B[m Location   (B[0;7mM-U(B[m Undo
[30d(B[0;7m^X(B[m Exit[15G(B[0;7m^R(B[m Read File  (B[0;7m^\(B[m Replace    (B[0;7m^U(B[m Paste[57G(B[0;7m^J(B[m Justify    (B[0;7m^/(B[m Go To Line (B[0;7mM-E(B[m Redo[H[?2004h[?1h=[?1h=[29d[J[1;51H(B[0;7m cp2k.out[104G  [1;104H(B[m
[28d GLOBAL| Geminal file name[28;68HBASIS_GEMINAL
[30d(B[0;7m^G(B[m Help[30;16H(B[0;7m^O(B[m Write Out   (B[0;7m^W(B[m Where Is    (B[0;7m^K(B[m Cut[30;61H(B[0;7m^T(B[m Execute     (B[0;7m^C(B[m Location    (B[0;7mM-U(B[m Undo
[31d(B[0;7m^X(B[m Exit[31;16H(B[0;7m^R(B[m Read File   (B[0;7m^\(B[m Replace     (B[0;7m^U(B[m Paste[61G(B[0;7m^J(B[m Justify     (B[0;7m^/(B[m Go To Line  (B[0;7mM-E(B[m Redo[?25l[?12l[?25h
[2d[?25l[?12l[?25h[31;1H[?1049l[23;0;0t
[?1l>[?1049h[22;0;0t[1;31r[?12l[?25h[39;49m]104(B[m[4l[?7h[H[2J(B[0;7m  GNU nano 6.2 [36bcp2k.out [44b[2;2H(B[mDBCSR| Multiplication driver[2;78HSMM
[3d DBCSR| Multiplication stack size[3;77H1000
[4d DBCSR| Multiplication size stacks[4;80H0
[5d DBCSR| Use subcommunicators[5;80HF
[6d DBCSR| Use MPI combined types[6;80HF
[7d DBCSR| Use MPI memory allocation[7;80HT
[8d DBCSR| Use Communication thread[8;80HT
[9d DBCSR| Communication thread load[9;78H100[12;3H**** **** ******  **  PROGRAM STARTED AT[12;58H2013-02-12 09:15:34.616
[13d ***** ** ***  *** **   PROGRAM STARTED ON[13;73Hnid00016
[14d **    ****   ******    PROGRAM STARTED BY
[15d ***** **    ** ** **   PROGRAM PROCESS ID[15;76H31373[16;3H**** **  *[6b  **  PROGRAM STARTED IN[16;53H/wrk/asillanp/cp2k/benchmark
[18d CP2K| version string:[18;65HCP2K version 2.3
[19d CP2K| source code revision number:[19;76H12343
[20d CP2K| is freely available from[20;61H[94mhttp://www.cp2k.org/[21;2H[39m(B[mCP2K| Program compiled at[21;53HThu Feb  7 17:23:41 EET 2013
[22d CP2K| Program compiled on[22;70Hsisu-login1
[23d CP2K| Program compiled for[23;70Hsisu-intel3
[24d CP2K| Input file name[24;67HH2O-512_md.inp
[26d GLOBAL| Force Environment number[26;80H1
[27d GLOBAL| Basis set file name[27;41H/wrk/asillanp/cp2k/basis_sets/GTH_BASIS_
[28d GLOBAL| Geminal file name[28;68HBASIS_GEMINAL
[30d(B[0;7m^G(B[m Help[30;16H(B[0;7m^O(B[m Write Out   (B[0;7m^W(B[m Where Is    (B[0;7m^K(B[m Cut[30;61H(B[0;7m^T(B[m Execute     (B[0;7m^C(B[m Location    (B[0;7mM-U(B[m Undo
[31d(B[0;7m^X(B[m Exit[31;16H(B[0;7m^R(B[m Read File   (B[0;7m^\(B[m Replace     (B[0;7m^U(B[m Paste[61G(B[0;7m^J(B[m Justify     (B[0;7m^/(B[m Go To Line  (B[0;7mM-E(B[m Redo[H[?2004h[?1h=[?1h=[30d[J[1;52H(B[0;7m cp2k.out[105G   [1;106H(B[m
[30d(B[0;7m^G(B[m Help[30;16H(B[0;7m^O(B[m Write Out   (B[0;7m^W(B[m Where Is    (B[0;7m^K(B[m Cut[30;61H(B[0;7m^T(B[m Execute     (B[0;7m^C(B[m Location    (B[0;7mM-U(B[m Undo
[31d(B[0;7m^X(B[m Exit[31;16H(B[0;7m^R(B[m Read File   (B[0;7m^\(B[m Replace     (B[0;7m^U(B[m Paste[61G(B[0;7m^J(B[m Justify     (B[0;7m^/(B[m Go To Line  (B[0;7mM-E(B[m Redo[?25l[?12l[?25h
[2d[?25l[?12l[?25h[31;1H[?1049l[23;0;0t
[?1l>[?1049h[22;0;0t[1;31r[?12l[?25h[39;49m]104(B[m[4l[?7h[H[2J(B[0;7m  GNU nano 6.2 [37bcp2k.out [44b[2;2H(B[mDBCSR| Multiplication driver[2;78HSMM
[3d DBCSR| Multiplication stack size[3;77H1000
[4d DBCSR| Multiplication size stacks[4;80H0
[5d DBCSR| Use subcommunicators[5;80HF
[6d DBCSR| Use MPI combined types[6;80HF
[7d DBCSR| Use MPI memory allocation[7;80HT
[8d DBCSR| Use Communication thread[8;80HT
[9d DBCSR| Communication thread load[9;78H100[12;3H**** **** ******  **  PROGRAM STARTED AT[12;58H2013-02-12 09:15:34.616
[13d ***** ** ***  *** **   PROGRAM STARTED ON[13;73Hnid00016
[14d **    ****   ******    PROGRAM STARTED BY
[15d ***** **    ** ** **   PROGRAM PROCESS ID[15;76H31373[16;3H**** **  *[6b  **  PROGRAM STARTED IN[16;53H/wrk/asillanp/cp2k/benchmark
[18d CP2K| version string:[18;65HCP2K version 2.3
[19d CP2K| source code revision number:[19;76H12343
[20d CP2K| is freely available from[20;61H[94mhttp://www.cp2k.org/[21;2H[39m(B[mCP2K| Program compiled at[21;53HThu Feb  7 17:23:41 EET 2013
[22d CP2K| Program compiled on[22;70Hsisu-login1
[23d CP2K| Program compiled for[23;70Hsisu-intel3
[24d CP2K| Input file name[24;67HH2O-512_md.inp
[26d GLOBAL| Force Environment number[26;80H1
[27d GLOBAL| Basis set file name[27;41H/wrk/asillanp/cp2k/basis_sets/GTH_BASIS_
[28d GLOBAL| Geminal file name[28;68HBASIS_GEMINAL
[30d(B[0;7m^G(B[m Help[30;16H(B[0;7m^O(B[m Write Out   (B[0;7m^W(B[m Where Is    (B[0;7m^K(B[m Cut[30;61H(B[0;7m^T(B[m Execute     (B[0;7m^C(B[m Location    (B[0;7mM-U(B[m Undo
[31d(B[0;7m^X(B[m Exit[31;16H(B[0;7m^R(B[m Read File   (B[0;7m^\(B[m Replace     (B[0;7m^U(B[m Paste[61G(B[0;7m^J(B[m Justify     (B[0;7m^/(B[m Go To Line  (B[0;7mM-E(B[m Redo[H[?2004h[?1h=[?1h=[30d[J[1;53H(B[0;7m  cp2k.out[106G      [1;110H(B[m
[30d(B[0;7m^G(B[m Help[30;16H(B[0;7m^O(B[m Write Out   (B[0;7m^W(B[m Where Is    (B[0;7m^K(B[m Cut[30;61H(B[0;7m^T(B[m Execute     (B[0;7m^C(B[m Location    (B[0;7mM-U(B[m Undo
[31d(B[0;7m^X(B[m Exit[31;16H(B[0;7m^R(B[m Read File   (B[0;7m^\(B[m Replace     (B[0;7m^U(B[m Paste[61G(B[0;7m^J(B[m Justify     (B[0;7m^/(B[m Go To Line  (B[0;7mM-E(B[m Redo[?25l[?12l[?25h
[2d[?25l[?12l[?25h[31;1H[?1049l[23;0;0t
[?1l>[?1049h[22;0;0t[1;32r[?12l[?25h[39;49m]104(B[m[4l[?7h[H[2J(B[0;7m  GNU nano 6.2 [39bcp2k.out [44b[2;2H(B[mDBCSR| Multiplication driver[2;78HSMM
[3d DBCSR| Multiplication stack size[3;77H1000
[4d DBCSR| Multiplication size stacks[4;80H0
[5d DBCSR| Use subcommunicators[5;80HF
[6d DBCSR| Use MPI combined types[6;80HF
[7d DBCSR| Use MPI memory allocation[7;80HT
[8d DBCSR| Use Communication thread[8;80HT
[9d DBCSR| Communication thread load[9;78H100[12;3H**** **** ******  **  PROGRAM STARTED AT[12;58H2013-02-12 09:15:34.616
[13d ***** ** ***  *** **   PROGRAM STARTED ON[13;73Hnid00016
[14d **    ****   ******    PROGRAM STARTED BY
[15d ***** **    ** ** **   PROGRAM PROCESS ID[15;76H31373[16;3H**** **  *[6b  **  PROGRAM STARTED IN[16;53H/wrk/asillanp/cp2k/benchmark
[18d CP2K| version string:[18;65HCP2K version 2.3
[19d CP2K| source code revision number:[19;76H12343
[20d CP2K| is freely available from[20;61H[94mhttp://www.cp2k.org/[21;2H[39m(B[mCP2K| Program compiled at[21;53HThu Feb  7 17:23:41 EET 2013
[22d CP2K| Program compiled on[22;70Hsisu-login1
[23d CP2K| Program compiled for[23;70Hsisu-intel3
[24d CP2K| Input file name[24;67HH2O-512_md.inp
[26d GLOBAL| Force Environment number[26;80H1
[27d GLOBAL| Basis set file name[27;41H/wrk/asillanp/cp2k/basis_sets/GTH_BASIS_
[28d GLOBAL| Geminal file name[28;68HBASIS_GEMINAL
[30d(B[0;7m^G(B[m Help[30;16H(B[0;7m^O(B[m Write Out   (B[0;7m^W(B[m Where Is    (B[0;7m^K(B[m Cut[30;61H(B[0;7m^T(B[m Execute     (B[0;7m^C(B[m Location    (B[0;7mM-U(B[m Undo
[31d(B[0;7m^X(B[m Exit[31;16H(B[0;7m^R(B[m Read File   (B[0;7m^\(B[m Replace     (B[0;7m^U(B[m Paste[61G(B[0;7m^J(B[m Justify     (B[0;7m^/(B[m Go To Line  (B[0;7mM-E(B[m Redo[H[?2004h[?1h=[?1h=[30d[J[1;55H(B[0;7m  cp2k.out[108G [6b [1;114H(B[m
[29d GLOBAL| Potential file name[29;42H/wrk/asillanp/cp2k/basis_sets/POTENTIAL
[31d(B[0;7m^G(B[m Help[31;17H(B[0;7m^O(B[m Write Out    (B[0;7m^W(B[m Where Is     (B[0;7m^K(B[m Cut[31;65H(B[0;7m^T(B[m Execute[81G(B[0;7m^C(B[m Location     (B[0;7mM-U(B[m Undo
[32d(B[0;7m^X(B[m Exit[32;17H(B[0;7m^R(B[m Read File    (B[0;7m^\(B[m Replace[49G(B[0;7m^U(B[m Paste[32;65H(B[0;7m^J(B[m Justify[81G(B[0;7m^/(B[m Go To Line   (B[0;7mM-E(B[m Redo[?25l[?12l[?25h
[2d[?25l[?12l[?25h[32;1H[?1049l[23;0;0t
[?1l>[?1049h[22;0;0t[1;32r[?12l[?25h[39;49m]104(B[m[4l[?7h[H[2J(B[0;7m  GNU nano 6.2 [41bcp2k.out [46b[2;2H(B[mDBCSR| Multiplication driver[2;78HSMM
[3d DBCSR| Multiplication stack size[3;77H1000
[4d DBCSR| Multiplication size stacks[4;80H0
[5d DBCSR| Use subcommunicators[5;80HF
[6d DBCSR| Use MPI combined types[6;80HF
[7d DBCSR| Use MPI memory allocation[7;80HT
[8d DBCSR| Use Communication thread[8;80HT
[9d DBCSR| Communication thread load[9;78H100[12;3H**** **** ******  **  PROGRAM STARTED AT[12;58H2013-02-12 09:15:34.616
[13d ***** ** ***  *** **   PROGRAM STARTED ON[13;73Hnid00016
[14d **    ****   ******    PROGRAM STARTED BY
[15d ***** **    ** ** **   PROGRAM PROCESS ID[15;76H31373[16;3H**** **  *[6b  **  PROGRAM STARTED IN[16;53H/wrk/asillanp/cp2k/benchmark
[18d CP2K| version string:[18;65HCP2K version 2.3
[19d CP2K| source code revision number:[19;76H12343
[20d CP2K| is freely available from[20;61H[94mhttp://www.cp2k.org/[21;2H[39m(B[mCP2K| Program compiled at[21;53HThu Feb  7 17:23:41 EET 2013
[22d CP2K| Program compiled on[22;70Hsisu-login1
[23d CP2K| Program compiled for[23;70Hsisu-intel3
[24d CP2K| Input file name[24;67HH2O-512_md.inp
[26d GLOBAL| Force Environment number[26;80H1
[27d GLOBAL| Basis set file name[27;41H/wrk/asillanp/cp2k/basis_sets/GTH_BASIS_
[28d GLOBAL| Geminal file name[28;68HBASIS_GEMINAL
[29d GLOBAL| Potential file name[29;42H/wrk/asillanp/cp2k/basis_sets/POTENTIAL
[31d(B[0;7m^G(B[m Help[31;17H(B[0;7m^O(B[m Write Out    (B[0;7m^W(B[m Where Is     (B[0;7m^K(B[m Cut[31;65H(B[0;7m^T(B[m Execute[81G(B[0;7m^C(B[m Location     (B[0;7mM-U(B[m Undo
[32d(B[0;7m^X(B[m Exit[32;17H(B[0;7m^R(B[m Read File    (B[0;7m^\(B[m Replace[49G(B[0;7m^U(B[m Paste[32;65H(B[0;7m^J(B[m Justify[81G(B[0;7m^/(B[m Go To Line   (B[0;7mM-E(B[m Redo[H[?2004h[?1h=[?1h=[31d[J[1;57H(B[0;7m  cp2k.out[1;112H [7b [1;119H(B[m
[31d(B[0;7m^G(B[m Help[31;16H(B[0;7m^O(B[m Write Out   (B[0;7m^W(B[m Where Is    (B[0;7m^K(B[m Cut[31;61H(B[0;7m^T(B[m Execute     (B[0;7m^C(B[m Location    (B[0;7mM-U(B[m Undo[106G(B[0;7mM-A(B[m Set Mark
[32d(B[0;7m^X(B[m Exit[32;16H(B[0;7m^R(B[m Read File   (B[0;7m^\(B[m Replace     (B[0;7m^U(B[m Paste[61G(B[0;7m^J(B[m Justify     (B[0;7m^/(B[m Go To Line  (B[0;7mM-E(B[m Redo[106G(B[0;7mM-6(B[m Copy[?25l[?12l[?25h
[2d[?25l[?12l[?25h[32;1H[?1049l[23;0;0t
[?1l>[?1049h[22;0;0t[1;33r[?12l[?25h[39;49m]104(B[m[4l[?7h[H[2J(B[0;7m  GNU nano 6.2 [43bcp2k.out [48b[2;2H(B[mDBCSR| Multiplication driver[2;78HSMM
[3d DBCSR| Multiplication stack size[3;77H1000
[4d DBCSR| Multiplication size stacks[4;80H0
[5d DBCSR| Use subcommunicators[5;80HF
[6d DBCSR| Use MPI combined types[6;80HF
[7d DBCSR| Use MPI memory allocation[7;80HT
[8d DBCSR| Use Communication thread[8;80HT
[9d DBCSR| Communication thread load[9;78H100[12;3H**** **** ******  **  PROGRAM STARTED AT[12;58H2013-02-12 09:15:34.616
[13d ***** ** ***  *** **   PROGRAM STARTED ON[13;73Hnid00016
[14d **    ****   ******    PROGRAM STARTED BY
[15d ***** **    ** ** **   PROGRAM PROCESS ID[15;76H31373[16;3H**** **  *[6b  **  PROGRAM STARTED IN[16;53H/wrk/asillanp/cp2k/benchmark
[18d CP2K| version string:[18;65HCP2K version 2.3
[19d CP2K| source code revision number:[19;76H12343
[20d CP2K| is freely available from[20;61H[94mhttp://www.cp2k.org/[21;2H[39m(B[mCP2K| Program compiled at[21;53HThu Feb  7 17:23:41 EET 2013
[22d CP2K| Program compiled on[22;70Hsisu-login1
[23d CP2K| Program compiled for[23;70Hsisu-intel3
[24d CP2K| Input file name[24;67HH2O-512_md.inp
[26d GLOBAL| Force Environment number[26;80H1
[27d GLOBAL| Basis set file name[27;41H/wrk/asillanp/cp2k/basis_sets/GTH_BASIS_
[28d GLOBAL| Geminal file name[28;68HBASIS_GEMINAL
[29d GLOBAL| Potential file name[29;42H/wrk/asillanp/cp2k/basis_sets/POTENTIAL
[31d(B[0;7m^G(B[m Help[31;16H(B[0;7m^O(B[m Write Out   (B[0;7m^W(B[m Where Is    (B[0;7m^K(B[m Cut[31;61H(B[0;7m^T(B[m Execute     (B[0;7m^C(B[m Location    (B[0;7mM-U(B[m Undo[106G(B[0;7mM-A(B[m Set Ma
[32d(B[0;7m^X(B[m Exit[32;16H(B[0;7m^R(B[m Read File   (B[0;7m^\(B[m Replace     (B[0;7m^U(B[m Paste[61G(B[0;7m^J(B[m Justify     (B[0;7m^/(B[m Go To Line  (B[0;7mM-E(B[m Redo[106G(B[0;7mM-6(B[m Copy[H[?2004h[?1h=[?1h=[31d[J[1;59H(B[0;7m  cp2k.out[1;116H [7b [1;123H(B[m
[30d GLOBAL| MM Potential file name[30;69HMM_POTENTIAL
[32d(B[0;7m^G(B[m Help[32;16H(B[0;7m^O(B[m Write Out   (B[0;7m^W(B[m Where Is    (B[0;7m^K(B[m Cut[32;61H(B[0;7m^T(B[m Execute     (B[0;7m^C(B[m Location    (B[0;7mM-U(B[m Undo[106G(B[0;7mM-A(B[m Set Mark
[33d(B[0;7m^X(B[m Exit[33;16H(B[0;7m^R(B[m Read File   (B[0;7m^\(B[m Replace     (B[0;7m^U(B[m Paste[61G(B[0;7m^J(B[m Justify     (B[0;7m^/(B[m Go To Line  (B[0;7mM-E(B[m Redo[106G(B[0;7mM-6(B[m Copy[?25l[?12l[?25h
[2d[?25l[?12l[?25h[33;1H[?1049l[23;0;0t
[?1l>[?1049h[22;0;0t[1;33r[?12l[?25h[39;49m]104(B[m[4l[?7h[H[2J(B[0;7m  GNU nano 6.2 [45bcp2k.out [51b[2;2H(B[mDBCSR| Multiplication driver[2;78HSMM
[3d DBCSR| Multiplication stack size[3;77H1000
[4d DBCSR| Multiplication size stacks[4;80H0
[5d DBCSR| Use subcommunicators[5;80HF
[6d DBCSR| Use MPI combined types[6;80HF
[7d DBCSR| Use MPI memory allocation[7;80HT
[8d DBCSR| Use Communication thread[8;80HT
[9d DBCSR| Communication thread load[9;78H100[12;3H**** **** ******  **  PROGRAM STARTED AT[12;58H2013-02-12 09:15:34.616
[13d ***** ** ***  *** **   PROGRAM STARTED ON[13;73Hnid00016
[14d **    ****   ******    PROGRAM STARTED BY
[15d ***** **    ** ** **   PROGRAM PROCESS ID[15;76H31373[16;3H**** **  *[6b  **  PROGRAM STARTED IN[16;53H/wrk/asillanp/cp2k/benchmark
[18d CP2K| version string:[18;65HCP2K version 2.3
[19d CP2K| source code revision number:[19;76H12343
[20d CP2K| is freely available from[20;61H[94mhttp://www.cp2k.org/[21;2H[39m(B[mCP2K| Program compiled at[21;53HThu Feb  7 17:23:41 EET 2013
[22d CP2K| Program compiled on[22;70Hsisu-login1
[23d CP2K| Program compiled for[23;70Hsisu-intel3
[24d CP2K| Input file name[24;67HH2O-512_md.inp
[26d GLOBAL| Force Environment number[26;80H1
[27d GLOBAL| Basis set file name[27;41H/wrk/asillanp/cp2k/basis_sets/GTH_BASIS_
[28d GLOBAL| Geminal file name[28;68HBASIS_GEMINAL
[29d GLOBAL| Potential file name[29;42H/wrk/asillanp/cp2k/basis_sets/POTENTIAL
[30d GLOBAL| MM Potential file name[30;69HMM_POTENTIAL
[32d(B[0;7m^G(B[m Help[32;16H(B[0;7m^O(B[m Write Out   (B[0;7m^W(B[m Where Is    (B[0;7m^K(B[m Cut[32;61H(B[0;7m^T(B[m Execute     (B[0;7m^C(B[m Location    (B[0;7mM-U(B[m Undo[106G(B[0;7mM-A(B[m Set Mark
[33d(B[0;7m^X(B[m Exit[33;16H(B[0;7m^R(B[m Read File   (B[0;7m^\(B[m Replace     (B[0;7m^U(B[m Paste[61G(B[0;7m^J(B[m Justify     (B[0;7m^/(B[m Go To Line  (B[0;7mM-E(B[m Redo[106G(B[0;7mM-6(B[m Copy[H[?2004h[?1h=[?1h=[32d[J[1;61H(B[0;7m cp2k.out[121G      [1;125H(B[m
[32d(B[0;7m^G(B[m Help[32;16H(B[0;7m^O(B[m Write Out   (B[0;7m^W(B[m Where Is    (B[0;7m^K(B[m Cut[32;61H(B[0;7m^T(B[m Execute     (B[0;7m^C(B[m Location    (B[0;7mM-U(B[m Undo[106G(B[0;7mM-A(B[m Set Mark
[33d(B[0;7m^X(B[m Exit[33;16H(B[0;7m^R(B[m Read File   (B[0;7m^\(B[m Replace     (B[0;7m^U(B[m Paste[61G(B[0;7m^J(B[m Justify     (B[0;7m^/(B[m Go To Line  (B[0;7mM-E(B[m Redo[106G(B[0;7mM-6(B[m Copy[?25l[?12l[?25h
[2d[?25l[?12l[?25h[33;1H[?1049l[23;0;0t
[?1l>[?1049h[22;0;0t[1;34r[?12l[?25h[39;49m]104(B[m[4l[?7h[H[2J(B[0;7m  GNU nano 6.2 [46bcp2k.out [54b[2;2H(B[mDBCSR| Multiplication driver[2;78HSMM
[3d DBCSR| Multiplication stack size[3;77H1000
[4d DBCSR| Multiplication size stacks[4;80H0
[5d DBCSR| Use subcommunicators[5;80HF
[6d DBCSR| Use MPI combined types[6;80HF
[7d DBCSR| Use MPI memory allocation[7;80HT
[8d DBCSR| Use Communication thread[8;80HT
[9d DBCSR| Communication thread load[9;78H100[12;3H**** **** ******  **  PROGRAM STARTED AT[12;58H2013-02-12 09:15:34.616
[13d ***** ** ***  *** **   PROGRAM STARTED ON[13;73Hnid00016
[14d **    ****   ******    PROGRAM STARTED BY
[15d ***** **    ** ** **   PROGRAM PROCESS ID[15;76H31373[16;3H**** **  *[6b  **  PROGRAM STARTED IN[16;53H/wrk/asillanp/cp2k/benchmark
[18d CP2K| version string:[18;65HCP2K version 2.3
[19d CP2K| source code revision number:[19;76H12343
[20d CP2K| is freely available from[20;61H[94mhttp://www.cp2k.org/[21;2H[39m(B[mCP2K| Program compiled at[21;53HThu Feb  7 17:23:41 EET 2013
[22d CP2K| Program compiled on[22;70Hsisu-login1
[23d CP2K| Program compiled for[23;70Hsisu-intel3
[24d CP2K| Input file name[24;67HH2O-512_md.inp
[26d GLOBAL| Force Environment number[26;80H1
[27d GLOBAL| Basis set file name[27;41H/wrk/asillanp/cp2k/basis_sets/GTH_BASIS_
[28d GLOBAL| Geminal file name[28;68HBASIS_GEMINAL
[29d GLOBAL| Potential file name[29;42H/wrk/asillanp/cp2k/basis_sets/POTENTIAL
[30d GLOBAL| MM Potential file name[30;69HMM_POTENTIAL
[32d(B[0;7m^G(B[m Help[32;16H(B[0;7m^O(B[m Write Out   (B[0;7m^W(B[m Where Is    (B[0;7m^K(B[m Cut[32;61H(B[0;7m^T(B[m Execute     (B[0;7m^C(B[m Location    (B[0;7mM-U(B[m Undo[106G(B[0;7mM-A(B[m Set Mark
[33d(B[0;7m^X(B[m Exit[33;16H(B[0;7m^R(B[m Read File   (B[0;7m^\(B[m Replace     (B[0;7m^U(B[m Paste[61G(B[0;7m^J(B[m Justify     (B[0;7m^/(B[m Go To Line  (B[0;7mM-E(B[m Redo[106G(B[0;7mM-6(B[m Copy[H[?2004h[?1h=[?1h=[32d[J[1;62H(B[0;7m cp2k.out[125G   [1;126H(B[m
[31d GLOBAL| Coordinate file name[31;68H__STD_INPUT__
[33d(B[0;7m^G(B[m Help[33;16H(B[0;7m^O(B[m Write Out   (B[0;7m^W(B[m Where Is    (B[0;7m^K(B[m Cut[33;61H(B[0;7m^T(B[m Execute     (B[0;7m^C(B[m Location    (B[0;7mM-U(B[m Undo[106G(B[0;7mM-A(B[m Set Mark
[34d(B[0;7m^X(B[m Exit[34;16H(B[0;7m^R(B[m Read File   (B[0;7m^\(B[m Replace     (B[0;7m^U(B[m Paste[61G(B[0;7m^J(B[m Justify     (B[0;7m^/(B[m Go To Line  (B[0;7mM-E(B[m Redo[106G(B[0;7mM-6(B[m Copy[?25l[?12l[?25h
[2d[?25l[?12l[?25h[34;1H[?1049l[23;0;0t
[?1l>[?1049h[22;0;0t[1;34r[?12l[?25h[39;49m]104(B[m[4l[?7h[H[2J(B[0;7m  GNU nano 6.2 [47bcp2k.out [55b[2;2H(B[mDBCSR| Multiplication driver[2;78HSMM
[3d DBCSR| Multiplication stack size[3;77H1000
[4d DBCSR| Multiplication size stacks[4;80H0
[5d DBCSR| Use subcommunicators[5;80HF
[6d DBCSR| Use MPI combined types[6;80HF
[7d DBCSR| Use MPI memory allocation[7;80HT
[8d DBCSR| Use Communication thread[8;80HT
[9d DBCSR| Communication thread load[9;78H100[12;3H**** **** ******  **  PROGRAM STARTED AT[12;58H2013-02-12 09:15:34.616
[13d ***** ** ***  *** **   PROGRAM STARTED ON[13;73Hnid00016
[14d **    ****   ******    PROGRAM STARTED BY
[15d ***** **    ** ** **   PROGRAM PROCESS ID[15;76H31373[16;3H**** **  *[6b  **  PROGRAM STARTED IN[16;53H/wrk/asillanp/cp2k/benchmark
[18d CP2K| version string:[18;65HCP2K version 2.3
[19d CP2K| source code revision number:[19;76H12343
[20d CP2K| is freely available from[20;61H[94mhttp://www.cp2k.org/[21;2H[39m(B[mCP2K| Program compiled at[21;53HThu Feb  7 17:23:41 EET 2013
[22d CP2K| Program compiled on[22;70Hsisu-login1
[23d CP2K| Program compiled for[23;70Hsisu-intel3
[24d CP2K| Input file name[24;67HH2O-512_md.inp
[26d GLOBAL| Force Environment number[26;80H1
[27d GLOBAL| Basis set file name[27;41H/wrk/asillanp/cp2k/basis_sets/GTH_BASIS_
[28d GLOBAL| Geminal file name[28;68HBASIS_GEMINAL
[29d GLOBAL| Potential file name[29;42H/wrk/asillanp/cp2k/basis_sets/POTENTIAL
[30d GLOBAL| MM Potential file name[30;69HMM_POTENTIAL
[31d GLOBAL| Coordinate file name[31;68H__STD_INPUT__
[33d(B[0;7m^G(B[m Help[33;16H(B[0;7m^O(B[m Write Out   (B[0;7m^W(B[m Where Is    (B[0;7m^K(B[m Cut[33;61H(B[0;7m^T(B[m Execute     (B[0;7m^C(B[m Location    (B[0;7mM-U(B[m Undo[106G(B[0;7mM-A(B[m Set Mark
[34d(B[0;7m^X(B[m Exit[34;16H(B[0;7m^R(B[m Read File   (B[0;7m^\(B[m Replace     (B[0;7m^U(B[m Paste[61G(B[0;7m^J(B[m Justify     (B[0;7m^/(B[m Go To Line  (B[0;7mM-E(B[m Redo[106G(B[0;7mM-6(B[m Copy[H[?2004h[?1h=[?1h=[33d[J[1;127H(B[0;7m  [1;127H(B[m
[33d(B[0;7m^G(B[m Help[33;17H(B[0;7m^O(B[m Write Out    (B[0;7m^W(B[m Where Is     (B[0;7m^K(B[m Cut[33;65H(B[0;7m^T(B[m Execute[81G(B[0;7m^C(B[m Location     (B[0;7mM-U(B[m Undo[33;113H(B[0;7mM-A(B[m Set Mark
[34d(B[0;7m^X(B[m Exit[34;17H(B[0;7m^R(B[m Read File    (B[0;7m^\(B[m Replace[49G(B[0;7m^U(B[m Paste[34;65H(B[0;7m^J(B[m Justify[81G(B[0;7m^/(B[m Go To Line   (B[0;7mM-E(B[m Redo[34;113H(B[0;7mM-6(B[m Copy[?25l[?12l[?25h
[2d[?25l[?12l[?25h[34;1H[?1049l[23;0;0t
[?1l>[?1049h[22;0;0t[1;34r[?12l[?25h[39;49m]104(B[m[4l[?7h[H[2J(B[0;7m  GNU nano 6.2 [47bcp2k.out [56b[2;2H(B[mDBCSR| Multiplication driver[2;78HSMM
[3d DBCSR| Multiplication stack size[3;77H1000
[4d DBCSR| Multiplication size stacks[4;80H0
[5d DBCSR| Use subcommunicators[5;80HF
[6d DBCSR| Use MPI combined types[6;80HF
[7d DBCSR| Use MPI memory allocation[7;80HT
[8d DBCSR| Use Communication thread[8;80HT
[9d DBCSR| Communication thread load[9;78H100[12;3H**** **** ******  **  PROGRAM STARTED AT[12;58H2013-02-12 09:15:34.616
[13d ***** ** ***  *** **   PROGRAM STARTED ON[13;73Hnid00016
[14d **    ****   ******    PROGRAM STARTED BY
[15d ***** **    ** ** **   PROGRAM PROCESS ID[15;76H31373[16;3H**** **  *[6b  **  PROGRAM STARTED IN[16;53H/wrk/asillanp/cp2k/benchmark
[18d CP2K| version string:[18;65HCP2K version 2.3
[19d CP2K| source code revision number:[19;76H12343
[20d CP2K| is freely available from[20;61H[94mhttp://www.cp2k.org/[21;2H[39m(B[mCP2K| Program compiled at[21;53HThu Feb  7 17:23:41 EET 2013
[22d CP2K| Program compiled on[22;70Hsisu-login1
[23d CP2K| Program compiled for[23;70Hsisu-intel3
[24d CP2K| Input file name[24;67HH2O-512_md.inp
[26d GLOBAL| Force Environment number[26;80H1
[27d GLOBAL| Basis set file name[27;41H/wrk/asillanp/cp2k/basis_sets/GTH_BASIS_
[28d GLOBAL| Geminal file name[28;68HBASIS_GEMINAL
[29d GLOBAL| Potential file name[29;42H/wrk/asillanp/cp2k/basis_sets/POTENTIAL
[30d GLOBAL| MM Potential file name[30;69HMM_POTENTIAL
[31d GLOBAL| Coordinate file name[31;68H__STD_INPUT__
[33d(B[0;7m^G(B[m Help[33;17H(B[0;7m^O(B[m Write Out    (B[0;7m^W(B[m Where Is     (B[0;7m^K(B[m Cut[33;65H(B[0;7m^T(B[m Execute[81G(B[0;7m^C(B[m Location     (B[0;7mM-U(B[m Undo[33;113H(B[0;7mM-A(B[m Set Mark
[34d(B[0;7m^X(B[m Exit[34;17H(B[0;7m^R(B[m Read File    (B[0;7m^\(B[m Replace[49G(B[0;7m^U(B[m Paste[34;65H(B[0;7m^J(B[m Justify[81G(B[0;7m^/(B[m Go To Line   (B[0;7mM-E(B[m Redo[34;113H(B[0;7mM-6(B[m Copy[H[?2004h[?1h=[?1h=[33d[J[1;63H(B[0;7m cp2k.out[128G  [1;128H(B[m
[33d(B[0;7m^G(B[m Help[33;17H(B[0;7m^O(B[m Write Out    (B[0;7m^W(B[m Where Is     (B[0;7m^K(B[m Cut[33;65H(B[0;7m^T(B[m Execute[81G(B[0;7m^C(B[m Location     (B[0;7mM-U(B[m Undo[33;113H(B[0;7mM-A(B[m Set Mark
[34d(B[0;7m^X(B[m Exit[34;17H(B[0;7m^R(B[m Read File    (B[0;7m^\(B[m Replace[49G(B[0;7m^U(B[m Paste[34;65H(B[0;7m^J(B[m Justify[81G(B[0;7m^/(B[m Go To Line   (B[0;7mM-E(B[m Redo[34;113H(B[0;7mM-6(B[m Copy[?25l[?12l[?25h
[2d[?25l[?12l[?25h[34;1H[?1049l[23;0;0t
[?1l>[?1049h[22;0;0t[1;34r[?12l[?25h[39;49m]104(B[m[4l[?7h[H[2J(B[0;7m  GNU nano 6.2 [48bcp2k.out [56b[2;2H(B[mDBCSR| Multiplication driver[2;78HSMM
[3d DBCSR| Multiplication stack size[3;77H1000
[4d DBCSR| Multiplication size stacks[4;80H0
[5d DBCSR| Use subcommunicators[5;80HF
[6d DBCSR| Use MPI combined types[6;80HF
[7d DBCSR| Use MPI memory allocation[7;80HT
[8d DBCSR| Use Communication thread[8;80HT
[9d DBCSR| Communication thread load[9;78H100[12;3H**** **** ******  **  PROGRAM STARTED AT[12;58H2013-02-12 09:15:34.616
[13d ***** ** ***  *** **   PROGRAM STARTED ON[13;73Hnid00016
[14d **    ****   ******    PROGRAM STARTED BY
[15d ***** **    ** ** **   PROGRAM PROCESS ID[15;76H31373[16;3H**** **  *[6b  **  PROGRAM STARTED IN[16;53H/wrk/asillanp/cp2k/benchmark
[18d CP2K| version string:[18;65HCP2K version 2.3
[19d CP2K| source code revision number:[19;76H12343
[20d CP2K| is freely available from[20;61H[94mhttp://www.cp2k.org/[21;2H[39m(B[mCP2K| Program compiled at[21;53HThu Feb  7 17:23:41 EET 2013
[22d CP2K| Program compiled on[22;70Hsisu-login1
[23d CP2K| Program compiled for[23;70Hsisu-intel3
[24d CP2K| Input file name[24;67HH2O-512_md.inp
[26d GLOBAL| Force Environment number[26;80H1
[27d GLOBAL| Basis set file name[27;41H/wrk/asillanp/cp2k/basis_sets/GTH_BASIS_
[28d GLOBAL| Geminal file name[28;68HBASIS_GEMINAL
[29d GLOBAL| Potential file name[29;42H/wrk/asillanp/cp2k/basis_sets/POTENTIAL
[30d GLOBAL| MM Potential file name[30;69HMM_POTENTIAL
[31d GLOBAL| Coordinate file name[31;68H__STD_INPUT__
[33d(B[0;7m^G(B[m Help[33;17H(B[0;7m^O(B[m Write Out    (B[0;7m^W(B[m Where Is     (B[0;7m^K(B[m Cut[33;65H(B[0;7m^T(B[m Execute[81G(B[0;7m^C(B[m Location     (B[0;7mM-U(B[m Undo[33;113H(B[0;7mM-A(B[m Set Mark
[34d(B[0;7m^X(B[m Exit[34;17H(B[0;7m^R(B[m Read File    (B[0;7m^\(B[m Replace[49G(B[0;7m^U(B[m Paste[34;65H(B[0;7m^J(B[m Justify[81G(B[0;7m^/(B[m Go To Line   (B[0;7mM-E(B[m Redo[34;113H(B[0;7mM-6(B[m Copy[H[?2004h[?1h=[?1h=[33d[J[1;129H(B[0;7m  [1;129H(B[m
[33d(B[0;7m^G(B[m Help[33;17H(B[0;7m^O(B[m Write Out    (B[0;7m^W(B[m Where Is     (B[0;7m^K(B[m Cut[33;65H(B[0;7m^T(B[m Execute[81G(B[0;7m^C(B[m Location     (B[0;7mM-U(B[m Undo[33;113H(B[0;7mM-A(B[m Set Mark
[34d(B[0;7m^X(B[m Exit[34;17H(B[0;7m^R(B[m Read File    (B[0;7m^\(B[m Replace[49G(B[0;7m^U(B[m Paste[34;65H(B[0;7m^J(B[m Justify[81G(B[0;7m^/(B[m Go To Line   (B[0;7mM-E(B[m Redo[34;113H(B[0;7mM-6(B[m Copy[?25l[?12l[?25h
[2d[?25l[?12l[?25h[34;1H[?1049l[23;0;0t
[?1l>[?1049h[22;0;0t[1;35r[?12l[?25h[39;49m]104(B[m[4l[?7h[H[2J(B[0;7m  GNU nano 6.2 [48bcp2k.out [57b[2;2H(B[mDBCSR| Multiplication driver[2;78HSMM
[3d DBCSR| Multiplication stack size[3;77H1000
[4d DBCSR| Multiplication size stacks[4;80H0
[5d DBCSR| Use subcommunicators[5;80HF
[6d DBCSR| Use MPI combined types[6;80HF
[7d DBCSR| Use MPI memory allocation[7;80HT
[8d DBCSR| Use Communication thread[8;80HT
[9d DBCSR| Communication thread load[9;78H100[12;3H**** **** ******  **  PROGRAM STARTED AT[12;58H2013-02-12 09:15:34.616
[13d ***** ** ***  *** **   PROGRAM STARTED ON[13;73Hnid00016
[14d **    ****   ******    PROGRAM STARTED BY
[15d ***** **    ** ** **   PROGRAM PROCESS ID[15;76H31373[16;3H**** **  *[6b  **  PROGRAM STARTED IN[16;53H/wrk/asillanp/cp2k/benchmark
[18d CP2K| version string:[18;65HCP2K version 2.3
[19d CP2K| source code revision number:[19;76H12343
[20d CP2K| is freely available from[20;61H[94mhttp://www.cp2k.org/[21;2H[39m(B[mCP2K| Program compiled at[21;53HThu Feb  7 17:23:41 EET 2013
[22d CP2K| Program compiled on[22;70Hsisu-login1
[23d CP2K| Program compiled for[23;70Hsisu-intel3
[24d CP2K| Input file name[24;67HH2O-512_md.inp
[26d GLOBAL| Force Environment number[26;80H1
[27d GLOBAL| Basis set file name[27;41H/wrk/asillanp/cp2k/basis_sets/GTH_BASIS_
[28d GLOBAL| Geminal file name[28;68HBASIS_GEMINAL
[29d GLOBAL| Potential file name[29;42H/wrk/asillanp/cp2k/basis_sets/POTENTIAL
[30d GLOBAL| MM Potential file name[30;69HMM_POTENTIAL
[31d GLOBAL| Coordinate file name[31;68H__STD_INPUT__
[33d(B[0;7m^G(B[m Help[33;17H(B[0;7m^O(B[m Write Out    (B[0;7m^W(B[m Where Is     (B[0;7m^K(B[m Cut[33;65H(B[0;7m^T(B[m Execute[81G(B[0;7m^C(B[m Location     (B[0;7mM-U(B[m Undo[33;113H(B[0;7mM-A(B[m Set Mark
[34d(B[0;7m^X(B[m Exit[34;17H(B[0;7m^R(B[m Read File    (B[0;7m^\(B[m Replace[49G(B[0;7m^U(B[m Paste[34;65H(B[0;7m^J(B[m Justify[81G(B[0;7m^/(B[m Go To Line   (B[0;7mM-E(B[m Redo[34;113H(B[0;7mM-6(B[m Copy[H[?2004h[?1h=[?1h=[33d[J[1;130H(B[0;7m [1;129H(B[m
[32d GLOBAL| Method name[32;77HCP2K
[34d(B[0;7m^G(B[m Help[34;17H(B[0;7m^O(B[m Write Out    (B[0;7m^W(B[m Where Is     (B[0;7m^K(B[m Cut[34;65H(B[0;7m^T(B[m Execute[81G(B[0;7m^C(B[m Location     (B[0;7mM-U(B[m Undo[34;113H(B[0;7mM-A(B[m Set Mark
[35d(B[0;7m^X(B[m Exit[35;17H(B[0;7m^R(B[m Read File    (B[0;7m^\(B[m Replace[49G(B[0;7m^U(B[m Paste[35;65H(B[0;7m^J(B[m Justify[81G(B[0;7m^/(B[m Go To Line   (B[0;7mM-E(B[m Redo[35;113H(B[0;7mM-6(B[m Copy[?25l[?12l[?25h
[2d[?25l[?12l[?25h[35;1H[?1049l[23;0;0t
[?1l>[?1049h[22;0;0t[1;35r[?12l[?25h[39;49m]104(B[m[4l[?7h[H[2J(B[0;7m  GNU nano 6.2 [48bcp2k.out [58b[2;2H(B[mDBCSR| Multiplication driver[2;78HSMM
[3d DBCSR| Multiplication stack size[3;77H1000
[4d DBCSR| Multiplication size stacks[4;80H0
[5d DBCSR| Use subcommunicators[5;80HF
[6d DBCSR| Use MPI combined types[6;80HF
[7d DBCSR| Use MPI memory allocation[7;80HT
[8d DBCSR| Use Communication thread[8;80HT
[9d DBCSR| Communication thread load[9;78H100[12;3H**** **** ******  **  PROGRAM STARTED AT[12;58H2013-02-12 09:15:34.616
[13d ***** ** ***  *** **   PROGRAM STARTED ON[13;73Hnid00016
[14d **    ****   ******    PROGRAM STARTED BY
[15d ***** **    ** ** **   PROGRAM PROCESS ID[15;76H31373[16;3H**** **  *[6b  **  PROGRAM STARTED IN[16;53H/wrk/asillanp/cp2k/benchmark
[18d CP2K| version string:[18;65HCP2K version 2.3
[19d CP2K| source code revision number:[19;76H12343
[20d CP2K| is freely available from[20;61H[94mhttp://www.cp2k.org/[21;2H[39m(B[mCP2K| Program compiled at[21;53HThu Feb  7 17:23:41 EET 2013
[22d CP2K| Program compiled on[22;70Hsisu-login1
[23d CP2K| Program compiled for[23;70Hsisu-intel3
[24d CP2K| Input file name[24;67HH2O-512_md.inp
[26d GLOBAL| Force Environment number[26;80H1
[27d GLOBAL| Basis set file name[27;41H/wrk/asillanp/cp2k/basis_sets/GTH_BASIS_
[28d GLOBAL| Geminal file name[28;68HBASIS_GEMINAL
[29d GLOBAL| Potential file name[29;42H/wrk/asillanp/cp2k/basis_sets/POTENTIAL
[30d GLOBAL| MM Potential file name[30;69HMM_POTENTIAL
[31d GLOBAL| Coordinate file name[31;68H__STD_INPUT__
[32d GLOBAL| Method name[32;77HCP2K
[34d(B[0;7m^G(B[m Help[34;17H(B[0;7m^O(B[m Write Out    (B[0;7m^W(B[m Where Is     (B[0;7m^K(B[m Cut[34;65H(B[0;7m^T(B[m Execute[81G(B[0;7m^C(B[m Location     (B[0;7mM-U(B[m Undo[34;113H(B[0;7mM-A(B[m Set Mark[H[?2004h[?1h=[?1h=[34d[J[1;64H(B[0;7m cp2k.out[131G [1;130H(B[m
[34d(B[0;7m^G(B[m Help[34;17H(B[0;7m^O(B[m Write Out    (B[0;7m^W(B[m Where Is     (B[0;7m^K(B[m Cut[34;65H(B[0;7m^T(B[m Execute[81G(B[0;7m^C(B[m Location     (B[0;7mM-U(B[m Undo[34;113H(B[0;7mM-A(B[m Set Mark
[35d(B[0;7m^X(B[m Exit[35;17H(B[0;7m^R(B[m Read File    (B[0;7m^\(B[m Replace[49G(B[0;7m^U(B[m Paste[35;65H(B[0;7m^J(B[m Justify[81G(B[0;7m^/(B[m Go To Line   (B[0;7mM-E(B[m Redo[35;113H(B[0;7mM-6(B[m Copy[?25l[?12l[?25h
[2d[?25l[?12l[?25h[35;1H[?1049l[23;0;0t
[?1l>[?1049h[22;0;0t[1;36r[?12l[?25h[39;49m]104(B[m[4l[?7h[H[2J(B[0;7m  GNU nano 6.2 [49bcp2k.out [57b[2;2H(B[mDBCSR| Multiplication driver[2;78HSMM
[3d DBCSR| Multiplication stack size[3;77H1000
[4d DBCSR| Multiplication size stacks[4;80H0
[5d DBCSR| Use subcommunicators[5;80HF
[6d DBCSR| Use MPI combined types[6;80HF
[7d DBCSR| Use MPI memory allocation[7;80HT
[8d DBCSR| Use Communication thread[8;80HT
[9d DBCSR| Communication thread load[9;78H100[12;3H**** **** ******  **  PROGRAM STARTED AT[12;58H2013-02-12 09:15:34.616
[13d ***** ** ***  *** **   PROGRAM STARTED ON[13;73Hnid00016
[14d **    ****   ******    PROGRAM STARTED BY
[15d ***** **    ** ** **   PROGRAM PROCESS ID[15;76H31373[16;3H**** **  *[6b  **  PROGRAM STARTED IN[16;53H/wrk/asillanp/cp2k/benchmark
[18d CP2K| version string:[18;65HCP2K version 2.3
[19d CP2K| source code revision number:[19;76H12343
[20d CP2K| is freely available from[20;61H[94mhttp://www.cp2k.org/[21;2H[39m(B[mCP2K| Program compiled at[21;53HThu Feb  7 17:23:41 EET 2013
[22d CP2K| Program compiled on[22;70Hsisu-login1
[23d CP2K| Program compiled for[23;70Hsisu-intel3
[24d CP2K| Input file name[24;67HH2O-512_md.inp
[26d GLOBAL| Force Environment number[26;80H1
[27d GLOBAL| Basis set file name[27;41H/wrk/asillanp/cp2k/basis_sets/GTH_BASIS_
[28d GLOBAL| Geminal file name[28;68HBASIS_GEMINAL
[29d GLOBAL| Potential file name[29;42H/wrk/asillanp/cp2k/basis_sets/POTENTIAL
[30d GLOBAL| MM Potential file name[30;69HMM_POTENTIAL
[31d GLOBAL| Coordinate file name[31;68H__STD_INPUT__
[32d GLOBAL| Method name[32;77HCP2K
[34d(B[0;7m^G(B[m Help[34;17H(B[0;7m^O(B[m Write Out    (B[0;7m^W(B[m Where Is     (B[0;7m^K(B[m Cut[34;65H(B[0;7m^T(B[m Execute[81G(B[0;7m^C(B[m Location     (B[0;7mM-U(B[m Undo[34;113H(B[0;7mM-A(B[m Set Mark
[35d(B[0;7m^X(B[m Exit[35;17H(B[0;7m^R(B[m Read File    (B[0;7m^\(B[m Replace[49G(B[0;7m^U(B[m Paste[35;65H(B[0;7m^J(B[m Justify[81G(B[0;7m^/(B[m Go To Line   (B[0;7mM-E(B[m Redo[35;113H(B[0;7mM-6(B[m Copy[H[?2004h[?1h=[?1h=[34d[J[1;131H(B[0;7m  [1;131H(B[m
[33d GLOBAL| Project name[33;74HH2O-512
[35d(B[0;7m^G(B[m Help[35;17H(B[0;7m^O(B[m Write Out    (B[0;7m^W(B[m Where Is     (B[0;7m^K(B[m Cut[35;65H(B[0;7m^T(B[m Execute[81G(B[0;7m^C(B[m Location     (B[0;7mM-U(B[m Undo[35;113H(B[0;7mM-A(B[m Set Mark
[36d(B[0;7m^X(B[m Exit[36;17H(B[0;7m^R(B[m Read File    (B[0;7m^\(B[m Replace[49G(B[0;7m^U(B[m Paste[36;65H(B[0;7m^J(B[m Justify[81G(B[0;7m^/(B[m Go To Line   (B[0;7mM-E(B[m Redo[36;113H(B[0;7mM-6(B[m Copy[?25l
[34d[?12l[?25h[2d[?25l[?12l[?25h[36;1H[?1049l[23;0;0t
[?1l>[?1049h[22;0;0t[1;36r[?12l[?25h[39;49m]104(B[m[4l[?7h[H[2J(B[0;7m  GNU nano 6.2 [49bcp2k.out [57b [2;2H(B[mDBCSR| Multiplication driver[2;78HSMM
[3d DBCSR| Multiplication stack size[3;77H1000
[4d DBCSR| Multiplication size stacks[4;80H0
[5d DBCSR| Use subcommunicators[5;80HF
[6d DBCSR| Use MPI combined types[6;80HF
[7d DBCSR| Use MPI memory allocation[7;80HT
[8d DBCSR| Use Communication thread[8;80HT
[9d DBCSR| Communication thread load[9;78H100[12;3H**** **** ******  **  PROGRAM STARTED AT[12;58H2013-02-12 09:15:34.616
[13d ***** ** ***  *** **   PROGRAM STARTED ON[13;73Hnid00016
[14d **    ****   ******    PROGRAM STARTED BY
[15d ***** **    ** ** **   PROGRAM PROCESS ID[15;76H31373[16;3H**** **  *[6b  **  PROGRAM STARTED IN[16;53H/wrk/asillanp/cp2k/benchmark
[18d CP2K| version string:[18;65HCP2K version 2.3
[19d CP2K| source code revision number:[19;76H12343
[20d CP2K| is freely available from[20;61H[94mhttp://www.cp2k.org/[21;2H[39m(B[mCP2K| Program compiled at[21;53HThu Feb  7 17:23:41 EET 2013
[22d CP2K| Program compiled on[22;70Hsisu-login1
[23d CP2K| Program compiled for[23;70Hsisu-intel3
[24d CP2K| Input file name[24;67HH2O-512_md.inp
[26d GLOBAL| Force Environment number[26;80H1
[27d GLOBAL| Basis set file name[27;41H/wrk/asillanp/cp2k/basis_sets/GTH_BASIS_
[28d GLOBAL| Geminal file name[28;68HBASIS_GEMINAL
[29d GLOBAL| Potential file name[29;42H/wrk/asillanp/cp2k/basis_sets/POTENTIAL
[30d GLOBAL| MM Potential file name[30;69HMM_POTENTIAL
[31d GLOBAL| Coordinate file name[31;68H__STD_INPUT__
[32d GLOBAL| Method name[32;77HCP2K
[33d GLOBAL| Project name[33;74HH2O-512
[35d(B[0;7m^G(B[m Help[35;17H(B[0;7m^O(B[m Write Out    (B[0;7m^W(B[m Where Is     (B[0;7m^K(B[m Cut[35;65H(B[0;7m^T(B[m Execute[81G(B[0;7m^C(B[m Location     (B[0;7mM-U(B[m Undo[35;113H(B[0;7mM-A(B[m Set Mark
[36d(B[0;7m^X(B[m Exit[36;17H(B[0;7m^R(B[m Read File    (B[0;7m^\(B[m Replace[49G(B[0;7m^U(B[m Paste[36;65H(B[0;7m^J(B[m Justify[81G(B[0;7m^/(B[m Go To Line   (B[0;7mM-E(B[m Redo[36;113H(B[0;7mM-6(B[m Copy[H[?2004h[?1h=[?1h=[35d[J[1;130H
[35d(B[0;7m^G(B[m Help[35;17H(B[0;7m^O(B[m Write Out    (B[0;7m^W(B[m Where Is     (B[0;7m^K(B[m Cut[35;65H(B[0;7m^T(B[m Execute[81G(B[0;7m^C(B[m Location     (B[0;7mM-U(B[m Undo[35;113H(B[0;7mM-A(B[m Set Mark
[36d(B[0;7m^X(B[m Exit[36;17H(B[0;7m^R(B[m Read File    (B[0;7m^\(B[m Replace[49G(B[0;7m^U(B[m Paste[36;65H(B[0;7m^J(B[m Justify[81G(B[0;7m^/(B[m Go To Line   (B[0;7mM-E(B[m Redo[36;113H(B[0;7mM-6(B[m Copy[?25l[?12l[?25h
[2d[?25l[?12l[?25h[36;1H[?1049l[23;0;0t
[?1l>[?1049h[22;0;0t[1;36r[?12l[?25h[39;49m]104(B[m[4l[?7h[H[2J[?2004h[?1h=[?1h=(B[0;7m  GNU nano 6.2 [48bcp2k.out [57b [1;129H(B[m
[2d DBCSR| Multiplication driver[2;78HSMM
[3d DBCSR| Multiplication stack size[3;77H1000
[4d DBCSR| Multiplication size stacks[4;80H0
[5d DBCSR| Use subcommunicators[5;80HF
[6d DBCSR| Use MPI combined types[6;80HF
[7d DBCSR| Use MPI memory allocation[7;80HT
[8d DBCSR| Use Communication thread[8;80HT
[9d DBCSR| Communication thread load[9;78H100[12;3H**** **** ******  **  PROGRAM STARTED AT[12;58H2013-02-12 09:15:34.616
[13d ***** ** ***  *** **   PROGRAM STARTED ON[13;73Hnid00016
[14d **    ****   ******    PROGRAM STARTED BY
[15d ***** **    ** ** **   PROGRAM PROCESS ID[15;76H31373[16;3H**** **  *[6b  **  PROGRAM STARTED IN[16;53H/wrk/asillanp/cp2k/benchmark
[18d CP2K| version string:[18;65HCP2K version 2.3
[19d CP2K| source code revision number:[19;76H12343
[20d CP2K| is freely available from[20;61H[94mhttp://www.cp2k.org/[21;2H[39m(B[mCP2K| Program compiled at[21;53HThu Feb  7 17:23:41 EET 2013
[22d CP2K| Program compiled on[22;70Hsisu-login1
[23d CP2K| Program compiled for[23;70Hsisu-intel3
[24d CP2K| Input file name[24;67HH2O-512_md.inp
[26d GLOBAL| Force Environment number[26;80H1
[27d GLOBAL| Basis set file name[27;41H/wrk/asillanp/cp2k/basis_sets/GTH_BASIS_
[28d GLOBAL| Geminal file name[28;68HBASIS_GEMINAL
[29d GLOBAL| Potential file name[29;42H/wrk/asillanp/cp2k/basis_sets/POTENTIAL
[30d GLOBAL| MM Potential file name[30;69HMM_POTENTIAL
[31d GLOBAL| Coordinate file name[31;68H__STD_INPUT__
[32d GLOBAL| Method name[32;77HCP2K
[33d GLOBAL| Project name[33;74HH2O-512
[35d(B[0;7m^G(B[m Help[35;17H(B[0;7m^O(B[m Write Out    (B[0;7m^W(B[m Where Is     (B[0;7m^K(B[m Cut[35;65H(B[0;7m^T(B[m Execute[81G(B[0;7m^C(B[m Location     (B[0;7mM-U(B[m Undo[35;113H(B[0;7mM-A(B[m Set Mark
[36d(B[0;7m^X(B[m Exit[36;17H(B[0;7m^R(B[m Read File    (B[0;7m^\(B[m Replace[49G(B[0;7m^U(B[m Paste[36;65H(B[0;7m^J(B[m Justify[81G(B[0;7m^/(B[m Go To Line   (B[0;7mM-E(B[m Redo[36;113H(B[0;7mM-6(B[m Copy[?25l[?12l[?25h
[2d[?25l[?12l[?25h[36;1H[?1049l[23;0;0t
[?1l>[?1049h[22;0;0t[1;36r[?12l[?25h[39;49m]104(B[m[4l[?7h[H[2J[?2004h[?1h=[?1h=(B[0;7m  GNU nano 6.2 [48bcp2k.out [56b [1;128H(B[m
[2d DBCSR| Multiplication driver[2;78HSMM
[3d DBCSR| Multiplication stack size[3;77H1000
[4d DBCSR| Multiplication size stacks[4;80H0
[5d DBCSR| Use subcommunicators[5;80HF
[6d DBCSR| Use MPI combined types[6;80HF
[7d DBCSR| Use MPI memory allocation[7;80HT
[8d DBCSR| Use Communication thread[8;80HT
[9d DBCSR| Communication thread load[9;78H100[12;3H**** **** ******  **  PROGRAM STARTED AT[12;58H2013-02-12 09:15:34.616
[13d ***** ** ***  *** **   PROGRAM STARTED ON[13;73Hnid00016
[14d **    ****   ******    PROGRAM STARTED BY
[15d ***** **    ** ** **   PROGRAM PROCESS ID[15;76H31373[16;3H**** **  *[6b  **  PROGRAM STARTED IN[16;53H/wrk/asillanp/cp2k/benchmark
[18d CP2K| version string:[18;65HCP2K version 2.3
[19d CP2K| source code revision number:[19;76H12343
[20d CP2K| is freely available from[20;61H[94mhttp://www.cp2k.org/[21;2H[39m(B[mCP2K| Program compiled at[21;53HThu Feb  7 17:23:41 EET 2013
[22d CP2K| Program compiled on[22;70Hsisu-login1
[23d CP2K| Program compiled for[23;70Hsisu-intel3
[24d CP2K| Input file name[24;67HH2O-512_md.inp
[26d GLOBAL| Force Environment number[26;80H1
[27d GLOBAL| Basis set file name[27;41H/wrk/asillanp/cp2k/basis_sets/GTH_BASIS_
[28d GLOBAL| Geminal file name[28;68HBASIS_GEMINAL
[29d GLOBAL| Potential file name[29;42H/wrk/asillanp/cp2k/basis_sets/POTENTIAL
[30d GLOBAL| MM Potential file name[30;69HMM_POTENTIAL
[31d GLOBAL| Coordinate file name[31;68H__STD_INPUT__
[32d GLOBAL| Method name[32;77HCP2K
[33d GLOBAL| Project name[33;74HH2O-512
[35d(B[0;7m^G(B[m Help[35;17H(B[0;7m^O(B[m Write Out    (B[0;7m^W(B[m Where Is     (B[0;7m^K(B[m Cut[35;65H(B[0;7m^T(B[m Execute[81G(B[0;7m^C(B[m Location     (B[0;7mM-U(B[m Undo[35;113H(B[0;7mM-A(B[m Set Mark
[36d(B[0;7m^X(B[m Exit[36;17H(B[0;7m^R(B[m Read File    (B[0;7m^\(B[m Replace[49G(B[0;7m^U(B[m Paste[36;65H(B[0;7m^J(B[m Justify[81G(B[0;7m^/(B[m Go To Line   (B[0;7mM-E(B[m Redo[36;113H(B[0;7mM-6(B[m Copy[?25l[?12l[?25h
[2d[?25l[?12l[?25h[36;1H[?1049l[23;0;0t
[?1l>[?1049h[22;0;0t[1;36r[?12l[?25h[39;49m]104(B[m[4l[?7h[H[2J[?2004h[?1h=[?1h=(B[0;7m  GNU nano 6.2 [47bcp2k.out [56b [1;127H(B[m
[2d DBCSR| Multiplication driver[2;78HSMM
[3d DBCSR| Multiplication stack size[3;77H1000
[4d DBCSR| Multiplication size stacks[4;80H0
[5d DBCSR| Use subcommunicators[5;80HF
[6d DBCSR| Use MPI combined types[6;80HF
[7d DBCSR| Use MPI memory allocation[7;80HT
[8d DBCSR| Use Communication thread[8;80HT
[9d DBCSR| Communication thread load[9;78H100[12;3H**** **** ******  **  PROGRAM STARTED AT[12;58H2013-02-12 09:15:34.616
[13d ***** ** ***  *** **   PROGRAM STARTED ON[13;73Hnid00016
[14d **    ****   ******    PROGRAM STARTED BY
[15d ***** **    ** ** **   PROGRAM PROCESS ID[15;76H31373[16;3H**** **  *[6b  **  PROGRAM STARTED IN[16;53H/wrk/asillanp/cp2k/benchmark
[18d CP2K| version string:[18;65HCP2K version 2.3
[19d CP2K| source code revision number:[19;76H12343
[20d CP2K| is freely available from[20;61H[94mhttp://www.cp2k.org/[21;2H[39m(B[mCP2K| Program compiled at[21;53HThu Feb  7 17:23:41 EET 2013
[22d CP2K| Program compiled on[22;70Hsisu-login1
[23d CP2K| Program compiled for[23;70Hsisu-intel3
[24d CP2K| Input file name[24;67HH2O-512_md.inp
[26d GLOBAL| Force Environment number[26;80H1
[27d GLOBAL| Basis set file name[27;41H/wrk/asillanp/cp2k/basis_sets/GTH_BASIS_
[28d GLOBAL| Geminal file name[28;68HBASIS_GEMINAL
[29d GLOBAL| Potential file name[29;42H/wrk/asillanp/cp2k/basis_sets/POTENTIAL
[30d GLOBAL| MM Potential file name[30;69HMM_POTENTIAL
[31d GLOBAL| Coordinate file name[31;68H__STD_INPUT__
[32d GLOBAL| Method name[32;77HCP2K
[33d GLOBAL| Project name[33;74HH2O-512
[35d(B[0;7m^G(B[m Help[35;17H(B[0;7m^O(B[m Write Out    (B[0;7m^W(B[m Where Is     (B[0;7m^K(B[m Cut[35;65H(B[0;7m^T(B[m Execute[81G(B[0;7m^C(B[m Location     (B[0;7mM-U(B[m Undo[35;113H(B[0;7mM-A(B[m Set Mark
[36d(B[0;7m^X(B[m Exit[36;17H(B[0;7m^R(B[m Read File    (B[0;7m^\(B[m Replace[49G(B[0;7m^U(B[m Paste[36;65H(B[0;7m^J(B[m Justify[81G(B[0;7m^/(B[m Go To Line   (B[0;7mM-E(B[m Redo[36;113H(B[0;7mM-6(B[m Copy[?25l[?12l[?25h
[2d[?25l[?12l[?25h[36;1H[?1049l[23;0;0t
[?1l>[?1049h[22;0;0t[1;36r[?12l[?25h[39;49m]104(B[m[4l[?7h[H[2J[?2004h[?1h=[?1h=(B[0;7m  GNU nano 6.2 [47bcp2k.out [55b [1;126H(B[m
[2d DBCSR| Multiplication driver[2;78HSMM
[3d DBCSR| Multiplication stack size[3;77H1000
[4d DBCSR| Multiplication size stacks[4;80H0
[5d DBCSR| Use subcommunicators[5;80HF
[6d DBCSR| Use MPI combined types[6;80HF
[7d DBCSR| Use MPI memory allocation[7;80HT
[8d DBCSR| Use Communication thread[8;80HT
[9d DBCSR| Communication thread load[9;78H100[12;3H**** **** ******  **  PROGRAM STARTED AT[12;58H2013-02-12 09:15:34.616
[13d ***** ** ***  *** **   PROGRAM STARTED ON[13;73Hnid00016
[14d **    ****   ******    PROGRAM STARTED BY
[15d ***** **    ** ** **   PROGRAM PROCESS ID[15;76H31373[16;3H**** **  *[6b  **  PROGRAM STARTED IN[16;53H/wrk/asillanp/cp2k/benchmark
[18d CP2K| version string:[18;65HCP2K version 2.3
[19d CP2K| source code revision number:[19;76H12343
[20d CP2K| is freely available from[20;61H[94mhttp://www.cp2k.org/[21;2H[39m(B[mCP2K| Program compiled at[21;53HThu Feb  7 17:23:41 EET 2013
[22d CP2K| Program compiled on[22;70Hsisu-login1
[23d CP2K| Program compiled for[23;70Hsisu-intel3
[24d CP2K| Input file name[24;67HH2O-512_md.inp
[26d GLOBAL| Force Environment number[26;80H1
[27d GLOBAL| Basis set file name[27;41H/wrk/asillanp/cp2k/basis_sets/GTH_BASIS_
[28d GLOBAL| Geminal file name[28;68HBASIS_GEMINAL
[29d GLOBAL| Potential file name[29;42H/wrk/asillanp/cp2k/basis_sets/POTENTIAL
[30d GLOBAL| MM Potential file name[30;69HMM_POTENTIAL
[31d GLOBAL| Coordinate file name[31;68H__STD_INPUT__
[32d GLOBAL| Method name[32;77HCP2K
[33d GLOBAL| Project name[33;74HH2O-512
[35d(B[0;7m^G(B[m Help[35;16H(B[0;7m^O(B[m Write Out   (B[0;7m^W(B[m Where Is    (B[0;7m^K(B[m Cut[35;61H(B[0;7m^T(B[m Execute     (B[0;7m^C(B[m Location    (B[0;7mM-U(B[m Undo[106G(B[0;7mM-A(B[m Set Mark
[36d(B[0;7m^X(B[m Exit[36;16H(B[0;7m^R(B[m Read File   (B[0;7m^\(B[m Replace     (B[0;7m^U(B[m Paste[61G(B[0;7m^J(B[m Justify     (B[0;7m^/(B[m Go To Line  (B[0;7mM-E(B[m Redo[106G(B[0;7mM-6(B[m Copy[?25l[?12l[?25h
[2d[?25l[?12l[?25h[36;1H[?1049l[23;0;0t
[?1l>[?1049h[22;0;0t[1;36r[?12l[?25h[39;49m]104(B[m[4l[?7h[H[2J[?2004h[?1h=[?1h=(B[0;7m  GNU nano 6.2 [46bcp2k.out [55b [1;125H(B[m
[2d DBCSR| Multiplication driver[2;78HSMM
[3d DBCSR| Multiplication stack size[3;77H1000
[4d DBCSR| Multiplication size stacks[4;80H0
[5d DBCSR| Use subcommunicators[5;80HF
[6d DBCSR| Use MPI combined types[6;80HF
[7d DBCSR| Use MPI memory allocation[7;80HT
[8d DBCSR| Use Communication thread[8;80HT
[9d DBCSR| Communication thread load[9;78H100[12;3H**** **** ******  **  PROGRAM STARTED AT[12;58H2013-02-12 09:15:34.616
[13d ***** ** ***  *** **   PROGRAM STARTED ON[13;73Hnid00016
[14d **    ****   ******    PROGRAM STARTED BY
[15d ***** **    ** ** **   PROGRAM PROCESS ID[15;76H31373[16;3H**** **  *[6b  **  PROGRAM STARTED IN[16;53H/wrk/asillanp/cp2k/benchmark
[18d CP2K| version string:[18;65HCP2K version 2.3
[19d CP2K| source code revision number:[19;76H12343
[20d CP2K| is freely available from[20;61H[94mhttp://www.cp2k.org/[21;2H[39m(B[mCP2K| Program compiled at[21;53HThu Feb  7 17:23:41 EET 2013
[22d CP2K| Program compiled on[22;70Hsisu-login1
[23d CP2K| Program compiled for[23;70Hsisu-intel3
[24d CP2K| Input file name[24;67HH2O-512_md.inp
[26d GLOBAL| Force Environment number[26;80H1
[27d GLOBAL| Basis set file name[27;41H/wrk/asillanp/cp2k/basis_sets/GTH_BASIS_
[28d GLOBAL| Geminal file name[28;68HBASIS_GEMINAL
[29d GLOBAL| Potential file name[29;42H/wrk/asillanp/cp2k/basis_sets/POTENTIAL
[30d GLOBAL| MM Potential file name[30;69HMM_POTENTIAL
[...]
(Reading database ...
(Reading database ... 5%
(Reading database ... 10%
(Reading database ... 15%
(Reading database ... 20%
(Reading database ... 25%
(Reading database ... 30%
(Reading database ... 35%
(Reading database ... 40%
(Reading database ... 45%
(Reading database ... 50%
(Reading database ... 55%
(Reading database ... 60%
(Reading database ... 65%
(Reading database ... 70%
(Reading database ... 75%
(Reading database ... 80%
(Reading database ... 85%
(Reading database ... 90%
(Reading database ... 95%
(Reading database ... 100%
(Reading database ... 213289 files and directories currently installed.)
Preparing to unpack .../00-libdouble-conversion3_3.1.7-4_amd64.deb ...
7[35;0f[42m[30mProgress: [  4%][49m[39m [###........................................................................] 8Unpacking libdouble-conversion3:amd64 (3.1.7-4) ...
7[35;0f[42m[30mProgress: [  6%][49m[39m [####.......................................................................] 8Selecting previously unselected package libpcre2-16-0:amd64.
Preparing to unpack .../01-libpcre2-16-0_10.39-3ubuntu0.1_amd64.deb ...
7[35;0f[42m[30mProgress: [  7%][49m[39m [#####......................................................................] 8Unpacking libpcre2-16-0:amd64 (10.39-3ubuntu0.1) ...
7[35;0f[42m[30mProgress: [  8%][49m[39m [######.....................................................................] 8Selecting previously unselected package libqt5core5a:amd64.
Preparing to unpack .../02-libqt5core5a_5.15.3+dfsg-2ubuntu0.2_amd64.deb ...
7[35;0f[42m[30mProgress: [ 10%][49m[39m [#######....................................................................] 8Unpacking libqt5core5a:amd64 (5.15.3+dfsg-2ubuntu0.2) ...
7[35;0f[42m[30mProgress: [ 11%][49m[39m [########...................................................................] 8Selecting previously unselected package libmd4c0:amd64.
Preparing to unpack .../03-libmd4c0_0.4.8-1_amd64.deb ...
7[35;0f[42m[30mProgress: [ 13%][49m[39m [#########..................................................................] 8Unpacking libmd4c0:amd64 (0.4.8-1) ...
7[35;0f[42m[30mProgress: [ 14%][49m[39m [##########.................................................................] 8Selecting previously unselected package libqt5dbus5:amd64.
Preparing to unpack .../04-libqt5dbus5_5.15.3+dfsg-2ubuntu0.2_amd64.deb ...
7[35;0f[42m[30mProgress: [ 15%][49m[39m [###########................................................................] 8Unpacking libqt5dbus5:amd64 (5.15.3+dfsg-2ubuntu0.2) ...
7[35;0f[42m[30mProgress: [ 17%][49m[39m [############...............................................................] 8Selecting previously unselected package libqt5network5:amd64.
Preparing to unpack .../05-libqt5network5_5.15.3+dfsg-2ubuntu0.2_amd64.deb ...
7[35;0f[42m[30mProgress: [ 18%][49m[39m [#############..............................................................] 8Unpacking libqt5network5:amd64 (5.15.3+dfsg-2ubuntu0.2) ...
7[35;0f[42m[30mProgress: [ 20%][49m[39m [##############.............................................................] 8Selecting previously unselected package libxcb-xinerama0:amd64.
Preparing to unpack .../06-libxcb-xinerama0_1.14-3ubuntu3_amd64.deb ...
7[35;0f[42m[30mProgress: [ 21%][49m[39m [###############............................................................] 8Unpacking libxcb-xinerama0:amd64 (1.14-3ubuntu3) ...
7[35;0f[42m[30mProgress: [ 23%][49m[39m [################...........................................................] 8Selecting previously unselected package libxcb-xinput0:amd64.
Preparing to unpack .../07-libxcb-xinput0_1.14-3ubuntu3_amd64.deb ...
7[35;0f[42m[30mProgress: [ 24%][49m[39m [#################..........................................................] 8Unpacking libxcb-xinput0:amd64 (1.14-3ubuntu3) ...
7[35;0f[42m[30mProgress: [ 25%][49m[39m [###################........................................................] 8Selecting previously unselected package libqt5gui5:amd64.
Preparing to unpack .../08-libqt5gui5_5.15.3+dfsg-2ubuntu0.2_amd64.deb ...
7[35;0f[42m[30mProgress: [ 27%][49m[39m [####################.......................................................] 8Unpacking libqt5gui5:amd64 (5.15.3+dfsg-2ubuntu0.2) ...
7[35;0f[42m[30mProgress: [ 28%][49m[39m [#####################......................................................] 8Selecting previously unselected package libqt5widgets5:amd64.
Preparing to unpack .../09-libqt5widgets5_5.15.3+dfsg-2ubuntu0.2_amd64.deb ...
7[35;0f[42m[30mProgress: [ 30%][49m[39m [######################.....................................................] 8Unpacking libqt5widgets5:amd64 (5.15.3+dfsg-2ubuntu0.2) ...
7[35;0f[42m[30mProgress: [ 31%][49m[39m [#######################....................................................] 8Selecting previously unselected package libqt5svg5:amd64.
Preparing to unpack .../10-libqt5svg5_5.15.3-1_amd64.deb ...
7[35;0f[42m[30mProgress: [ 32%][49m[39m [########################...................................................] 8Unpacking libqt5svg5:amd64 (5.15.3-1) ...
7[35;0f[42m[30mProgress: [ 34%][49m[39m [#########################..................................................] 8Selecting previously unselected package libqt5printsupport5:amd64.
Preparing to unpack .../11-libqt5printsupport5_5.15.3+dfsg-2ubuntu0.2_amd64.deb ...
7[35;0f[42m[30mProgress: [ 35%][49m[39m [##########################.................................................] 8Unpacking libqt5printsupport5:amd64 (5.15.3+dfsg-2ubuntu0.2) ...
7[35;0f[42m[30mProgress: [ 37%][49m[39m [###########################................................................] 8Selecting previously unselected package libwxbase3.0-0v5:amd64.
Preparing to unpack .../12-libwxbase3.0-0v5_3.0.5.1+dfsg-4_amd64.deb ...
7[35;0f[42m[30mProgress: [ 38%][49m[39m [############################...............................................] 8Unpacking libwxbase3.0-0v5:amd64 (3.0.5.1+dfsg-4) ...
7[35;0f[42m[30mProgress: [ 39%][49m[39m [#############################..............................................] 8Selecting previously unselected package libwxgtk3.0-gtk3-0v5:amd64.
Preparing to unpack .../13-libwxgtk3.0-gtk3-0v5_3.0.5.1+dfsg-4_amd64.deb ...
7[35;0f[42m[30mProgress: [ 41%][49m[39m [##############################.............................................] 8Unpacking libwxgtk3.0-gtk3-0v5:amd64 (3.0.5.1+dfsg-4) ...
7[35;0f[42m[30mProgress: [ 42%][49m[39m [###############################............................................] 8Selecting previously unselected package gnuplot-qt.
Preparing to unpack .../14-gnuplot-qt_5.4.2+dfsg2-2_amd64.deb ...
7[35;0f[42m[30mProgress: [ 44%][49m[39m [################################...........................................] 8Unpacking gnuplot-qt (5.4.2+dfsg2-2) ...
7[35;0f[42m[30mProgress: [ 45%][49m[39m [#################################..........................................] 8Selecting previously unselected package qt5-gtk-platformtheme:amd64.
Preparing to unpack .../15-qt5-gtk-platformtheme_5.15.3+dfsg-2ubuntu0.2_amd64.deb ...
7[35;0f[42m[30mProgress: [ 46%][49m[39m [##################################.........................................] 8Unpacking qt5-gtk-platformtheme:amd64 (5.15.3+dfsg-2ubuntu0.2) ...
7[35;0f[42m[30mProgress: [ 48%][49m[39m [###################################........................................] 8Selecting previously unselected package qttranslations5-l10n.
Preparing to unpack .../16-qttranslations5-l10n_5.15.3-1_all.deb ...
7[35;0f[42m[30mProgress: [ 49%][49m[39m [####################################.......................................] 8Unpacking qttranslations5-l10n (5.15.3-1) ...
7[35;0f[42m[30mProgress: [ 51%][49m[39m [######################################.....................................] 8Setting up libdouble-conversion3:amd64 (3.1.7-4) ...
7[35;0f[42m[30mProgress: [ 52%][49m[39m [#######################################....................................] 87[35;0f[42m[30mProgress: [ 54%][49m[39m [########################################...................................] 8Setting up libxcb-xinput0:amd64 (1.14-3ubuntu3) ...
7[35;0f[42m[30mProgress: [ 55%][49m[39m [#########################################..................................] 87[35;0f[42m[30mProgress: [ 56%][49m[39m [##########################################.................................] 8Setting up libpcre2-16-0:amd64 (10.39-3ubuntu0.1) ...
7[35;0f[42m[30mProgress: [ 58%][49m[39m [###########################################................................] 87[35;0f[42m[30mProgress: [ 59%][49m[39m [############################################...............................] 8Setting up libxcb-xinerama0:amd64 (1.14-3ubuntu3) ...
7[35;0f[42m[30mProgress: [ 61%][49m[39m [#############################################..............................] 87[35;0f[42m[30mProgress: [ 62%][49m[39m [##############################################.............................] 8Setting up qttranslations5-l10n (5.15.3-1) ...
7[35;0f[42m[30mProgress: [ 63%][49m[39m [###############################################............................] 87[35;0f[42m[30mProgress: [ 65%][49m[39m [################################################...........................] 8Setting up libqt5core5a:amd64 (5.15.3+dfsg-2ubuntu0.2) ...
7[35;0f[42m[30mProgress: [ 66%][49m[39m [#################################################..........................] 87[35;0f[42m[30mProgress: [ 68%][49m[39m [##################################################.........................] 8Setting up libqt5dbus5:amd64 (5.15.3+dfsg-2ubuntu0.2) ...
7[35;0f[42m[30mProgress: [ 69%][49m[39m [###################################################........................] 87[35;0f[42m[30mProgress: [ 70%][49m[39m [####################################################.......................] 8Setting up libmd4c0:amd64 (0.4.8-1) ...
7[35;0f[42m[30mProgress: [ 72%][49m[39m [#####################################################......................] 87[35;0f[42m[30mProgress: [ 73%][49m[39m [######################################################.....................] 8Setting up libwxbase3.0-0v5:amd64 (3.0.5.1+dfsg-4) ...
7[35;0f[42m[30mProgress: [ 75%][49m[39m [#######################################################....................] 87[35;0f[42m[30mProgress: [ 76%][49m[39m [#########################################################..................] 8Setting up libwxgtk3.0-gtk3-0v5:amd64 (3.0.5.1+dfsg-4) ...
7[35;0f[42m[30mProgress: [ 77%][49m[39m [##########################################################.................] 87[35;0f[42m[30mProgress: [ 79%][49m[39m [###########################################################................] 8Setting up libqt5network5:amd64 (5.15.3+dfsg-2ubuntu0.2) ...
7[35;0f[42m[30mProgress: [ 80%][49m[39m [############################################################...............] 87[35;0f[42m[30mProgress: [ 82%][49m[39m [#############################################################..............] 8Setting up libqt5gui5:amd64 (5.15.3+dfsg-2ubuntu0.2) ...
7[35;0f[42m[30mProgress: [ 83%][49m[39m [##############################################################.............] 87[35;0f[42m[30mProgress: [ 85%][49m[39m [###############################################################............] 8Setting up libqt5widgets5:amd64 (5.15.3+dfsg-2ubuntu0.2) ...
7[35;0f[42m[30mProgress: [ 86%][49m[39m [################################################################...........] 87[35;0f[42m[30mProgress: [ 87%][49m[39m [#################################################################..........] 8Setting up qt5-gtk-platformtheme:amd64 (5.15.3+dfsg-2ubuntu0.2) ...
7[35;0f[42m[30mProgress: [ 89%][49m[39m [##################################################################.........] 87[35;0f[42m[30mProgress: [ 90%][49m[39m [###################################################################........] 8Setting up libqt5printsupport5:amd64 (5.15.3+dfsg-2ubuntu0.2) ...
7[35;0f[42m[30mProgress: [ 92%][49m[39m [####################################################################.......] 87[35;0f[42m[30mProgress: [ 93%][49m[39m [#####################################################################......] 8Setting up libqt5svg5:amd64 (5.15.3-1) ...
7[35;0f[42m[30mProgress: [ 94%][49m[39m [######################################################################.....] 87[35;0f[42m[30mProgress: [ 96%][49m[39m [#######################################################################....] 8Setting up gnuplot-qt (5.4.2+dfsg2-2) ...
7[35;0f[42m[30mProgress: [ 97%][49m[39m [########################################################################...] 8update-alternatives: using /usr/bin/gnuplot-qt to provide /usr/bin/gnuplot (gnuplot) in auto mode
7[35;0f[42m[30mProgress: [ 99%][49m[39m [#########################################################################..] 8Processing triggers for libc-bin (2.35-0ubuntu3.4) ...
Processing triggers for man-db (2.10.2-1) ...

7[0;35r8[1A[J[?2004h]0;cristinagheorghe@Ubuntu22: ~/Downloads/linux-exercises[01;32mcristinagheorghe@Ubuntu22[00m:[01;34m~/Downloads/linux-exercises[00m$ sudo apt install gnuplot-qtgnuplot[K
[?2004l

	G N U P L O T
	Version 5.4 patchlevel 2    last modified 2021-06-01

	Copyright (C) 1986-1993, 1998, 2004, 2007-2021
	Thomas Williams, Colin Kelley and many others

	gnuplot home:     http://www.gnuplot.info
	faq, bugs, etc:   type "help FAQ"
	immediate help:   type "help"  (plot window: hit 'h')

Terminal type is now 'qt'
gnuplot> plot 'times' using 0:5 with lines
Warning: Ignoring XDG_SESSION_TYPE=wayland on Gnome. Use QT_QPA_PLATFORM=wayland to run on Wayland anyway.
gnuplot> ^[[A
[10Gplot 'times' using 0:5 with lines
[42G[K
[41G[K
[40G[K
[39G[K
[38G[Kpoints
gnuplot> quit
[?2004h]0;cristinagheorghe@Ubuntu22: ~/Downloads/linux-exercises[01;32mcristinagheorghe@Ubuntu22[00m:[01;34m~/Downloads/linux-exercises[00m$ [7mgrep TEMPERATURE cp2k.out[27mgrep TEMPERATURE cp2k.out
[?2004l
 INITIAL [01;31m[KTEMPERATURE[m[K[K]                =                                 300.000
 [01;31m[KTEMPERATURE[m[K [K]              =                     305.326              305.326
 [01;31m[KTEMPERATURE[m[K [K]              =                     323.124              314.225
 [01;31m[KTEMPERATURE[m[K [K]              =                     347.442              325.297
 [01;31m[KTEMPERATURE[m[K [K]              =                     368.720              336.153
 [01;31m[KTEMPERATURE[m[K [K]              =                     377.405              344.403
 [01;31m[KTEMPERATURE[m[K [K]              =                     368.690              348.451
 [01;31m[KTEMPERATURE[m[K [K]              =                     344.999              347.958
 [01;31m[KTEMPERATURE[m[K [K]              =                     314.601              343.788
 [01;31m[KTEMPERATURE[m[K [K]              =                     287.757              337.563
 [01;31m[KTEMPERATURE[m[K [K]              =                     272.845              331.091
[?2004h]0;cristinagheorghe@Ubuntu22: ~/Downloads/linux-exercises[01;32mcristinagheorghe@Ubuntu22[00m:[01;34m~/Downloads/linux-exercises[00m$ [7mgrep TEMPERATURE cp2k.out | awk '{a+=$4;pr[27m[7mi[27m
[7mint $4,NR,a/NR}'[27m[A
]0;cristinagheorghe@Ubuntu22: ~/Downloads/linux-exercises[01;32mcristinagheorghe@Ubuntu22[00m:[01;34m~/Downloads/linux-exercises[00m$ grep TEMPERATURE cp2k.out | awk '{a+=$4;print $4,NR,a/NR}'
[?2004l
300.000 1 300
305.326 2 302,5
323.124 3 309,333
347.442 4 318,75
368.720 5 328,6
377.405 6 336,667
368.690 7 341,143
344.999 8 341,5
314.601 9 338,444
287.757 10 333,3
272.845 11 327,727
[?2004h]0;cristinagheorghe@Ubuntu22: ~/Downloads/linux-exercises[01;32mcristinagheorghe@Ubuntu22[00m:[01;34m~/Downloads/linux-exercises[00m$ [K[7mawk '/TEMPERATURE/{a+=$4;n++;print $4,n,a/[27m[7mn[27m
[7mn}' cp2k.out[27m[A
]0;cristinagheorghe@Ubuntu22: ~/Downloads/linux-exercises[01;32mcristinagheorghe@Ubuntu22[00m:[01;34m~/Downloads/linux-exercises[00m$ awk '/TEMPERATURE/{a+=$4;n++;print $4,n,a/n}' cp2k.out
[?2004l
300.000 1 300
305.326 2 302,5
323.124 3 309,333
347.442 4 318,75
368.720 5 328,6
377.405 6 336,667
368.690 7 341,143
344.999 8 341,5
314.601 9 338,444
287.757 10 333,3
272.845 11 327,727
[?2004h]0;cristinagheorghe@Ubuntu22: ~/Downloads/linux-exercises[01;32mcristinagheorghe@Ubuntu22[00m:[01;34m~/Downloads/linux-exercises[00m$ [Kawk '/TEMPERATURE/{a+=$4;n++;print $4,n,a/n
n}' cp2k.out[A
]0;cristinagheorghe@Ubuntu22: ~/Downloads/linux-exercises[01;32mcristinagheorghe@Ubuntu22[00m:[01;34m~/Downloads/linux-exercises[00m$ grep TEMPERATURE cp2k.out | awk '{a+=$4;print $4,NR,a/NR}'[A
]0;cristinagheorghe@Ubuntu22: ~/Downloads/linux-exercises[01;32mcristinagheorghe@Ubuntu22[00m:[01;34m~/Downloads/linux-exercises[00m$ grep TEMPERATURE cp2k.out[K

[K[A
]0;cristinagheorghe@Ubuntu22: ~/Downloads/linux-exercises[01;32mcristinagheorghe@Ubuntu22[00m:[01;34m~/Downloads/linux-exercises[00m$ grep TEMPERATURE cp2k.outnuplot[K[20@sudo apt install gnuplot-qtgnuplot[K       [7mcat cp2k.xyz | sort -n -k 2 | head[27mcat cp2k.xyz | sort -n -k 2 | head
[?2004l
  H        -0.5305550000        3.6122210000       14.7086020000
  H        -0.5099810000        4.6930730000       22.7955390000
  H        -0.3297560000        8.5010670000        4.8782520000
  H        -0.3241760000       15.1038460000        1.5773540000
  H        -0.0748410000        0.8127580000        0.0296070000
  H        -0.0458740000       21.3572900000        6.8759690000
    1536
 i =        0, time =        0.000, E =     -8807.9524412500
  H         0.0614840000        4.2880610000       11.2611580000
  H         0.1497510000        6.9271230000       21.0598550000
[?2004h]0;cristinagheorghe@Ubuntu22: ~/Downloads/linux-exercises[01;32mcristinagheorghe@Ubuntu22[00m:[01;34m~/Downloads/linux-exercises[00m$ [7mwget ftp://mirbase.org/pub/mirbase/CURRENT[27m[7m/[27m
[7m/genomes/hsa.gff3[27m[A
]0;cristinagheorghe@Ubuntu22: ~/Downloads/linux-exercises[01;32mcristinagheorghe@Ubuntu22[00m:[01;34m~/Downloads/linux-exercises[00m$ wget ftp://mirbase.org/pub/mirbase/CURRENT/genomes/hsa.gff3
[?2004l
--2023-11-28 12:24:09--  ftp://mirbase.org/pub/mirbase/CURRENT/genomes/hsa.gff3
           => 'hsa.gff3'
Resolving mirbase.org (mirbase.org)... 130.88.97.249
Connecting to mirbase.org (mirbase.org)|130.88.97.249|:21... failed: Connection timed out.
Retrying.

--2023-11-28 12:26:21--  ftp://mirbase.org/pub/mirbase/CURRENT/genomes/hsa.gff3
  (try: 2) => 'hsa.gff3'
Connecting to mirbase.org (mirbase.org)|130.88.97.249|:21... failed: Connection timed out.
Retrying.

--2023-11-28 12:28:33--  ftp://mirbase.org/pub/mirbase/CURRENT/genomes/hsa.gff3
  (try: 3) => 'hsa.gff3'
Connecting to mirbase.org (mirbase.org)|130.88.97.249|:21... ^C
[?2004h]0;cristinagheorghe@Ubuntu22: ~/Downloads/linux-exercises[01;32mcristinagheorghe@Ubuntu22[00m:[01;34m~/Downloads/linux-exercises[00m$ [Kexit
[?2004l
exit

Script done on 2023-11-28 12:40:26+02:00 [COMMAND_EXIT_CODE="130"]
